 Entering Gaussian System, Link 0=g09
 Input=gemifloxacina.gjf
 Output=gemifloxacina.log
 Initial command:
 /usr/local/cluster_programs/g09/l1.exe "/tmp/scratch/63944.prometeo/Gau-14243.inp" -scrdir="/tmp/scratch/63944.prometeo/"
 Entering Link 1 = /usr/local/cluster_programs/g09/l1.exe PID=     14244.
  
 Copyright (c) 1988,1990,1992,1993,1995,1998,2003,2009,2013,
            Gaussian, Inc.  All Rights Reserved.
  
 This is part of the Gaussian(R) 09 program.  It is based on
 the Gaussian(R) 03 system (copyright 2003, Gaussian, Inc.),
 the Gaussian(R) 98 system (copyright 1998, Gaussian, Inc.),
 the Gaussian(R) 94 system (copyright 1995, Gaussian, Inc.),
 the Gaussian 92(TM) system (copyright 1992, Gaussian, Inc.),
 the Gaussian 90(TM) system (copyright 1990, Gaussian, Inc.),
 the Gaussian 88(TM) system (copyright 1988, Gaussian, Inc.),
 the Gaussian 86(TM) system (copyright 1986, Carnegie Mellon
 University), and the Gaussian 82(TM) system (copyright 1983,
 Carnegie Mellon University). Gaussian is a federally registered
 trademark of Gaussian, Inc.
  
 This software contains proprietary and confidential information,
 including trade secrets, belonging to Gaussian, Inc.
  
 This software is provided under written license and may be
 used, copied, transmitted, or stored only in accord with that
 written license.
  
 The following legend is applicable only to US Government
 contracts under FAR:
  
                    RESTRICTED RIGHTS LEGEND
  
 Use, reproduction and disclosure by the US Government is
 subject to restrictions as set forth in subparagraphs (a)
 and (c) of the Commercial Computer Software - Restricted
 Rights clause in FAR 52.227-19.
  
 Gaussian, Inc.
 340 Quinnipiac St., Bldg. 40, Wallingford CT 06492
  
  
 ---------------------------------------------------------------
 Warning -- This program may not be used in any manner that
 competes with the business of Gaussian, Inc. or will provide
 assistance to any competitor of Gaussian, Inc.  The licensee
 of this program is prohibited from giving any competitor of
 Gaussian, Inc. access to this program.  By using this program,
 the user acknowledges that Gaussian, Inc. is engaged in the
 business of creating and licensing software in the field of
 computational chemistry and represents and warrants to the
 licensee that it is not a competitor of Gaussian, Inc. and that
 it will not use this program in any manner prohibited above.
 ---------------------------------------------------------------
  

 Cite this work as:
 Gaussian 09, Revision D.01,
 M. J. Frisch, G. W. Trucks, H. B. Schlegel, G. E. Scuseria, 
 M. A. Robb, J. R. Cheeseman, G. Scalmani, V. Barone, B. Mennucci, 
 G. A. Petersson, H. Nakatsuji, M. Caricato, X. Li, H. P. Hratchian, 
 A. F. Izmaylov, J. Bloino, G. Zheng, J. L. Sonnenberg, M. Hada, 
 M. Ehara, K. Toyota, R. Fukuda, J. Hasegawa, M. Ishida, T. Nakajima, 
 Y. Honda, O. Kitao, H. Nakai, T. Vreven, J. A. Montgomery, Jr., 
 J. E. Peralta, F. Ogliaro, M. Bearpark, J. J. Heyd, E. Brothers, 
 K. N. Kudin, V. N. Staroverov, T. Keith, R. Kobayashi, J. Normand, 
 K. Raghavachari, A. Rendell, J. C. Burant, S. S. Iyengar, J. Tomasi, 
 M. Cossi, N. Rega, J. M. Millam, M. Klene, J. E. Knox, J. B. Cross, 
 V. Bakken, C. Adamo, J. Jaramillo, R. Gomperts, R. E. Stratmann, 
 O. Yazyev, A. J. Austin, R. Cammi, C. Pomelli, J. W. Ochterski, 
 R. L. Martin, K. Morokuma, V. G. Zakrzewski, G. A. Voth, 
 P. Salvador, J. J. Dannenberg, S. Dapprich, A. D. Daniels, 
 O. Farkas, J. B. Foresman, J. V. Ortiz, J. Cioslowski, 
 and D. J. Fox, Gaussian, Inc., Wallingford CT, 2013.
 
 ******************************************
 Gaussian 09:  ES64L-G09RevD.01 24-Apr-2013
                 6-Jul-2020 
 ******************************************
 %nprocshared=20
 Will use up to   20 processors via shared memory.
 -----------------------------------
 # opt b3lyp/3-21g geom=connectivity
 -----------------------------------
 1/14=-1,18=20,19=15,26=3,38=1,57=2/1,3;
 2/9=110,12=2,17=6,18=5,40=1/2;
 3/5=5,11=2,16=1,25=1,30=1,71=1,74=-5/1,2,3;
 4//1;
 5/5=2,38=5/2;
 6/7=2,8=2,9=2,10=2,28=1/1;
 7//1,2,3,16;
 1/14=-1,18=20,19=15,26=3/3(2);
 2/9=110/2;
 99//99;
 2/9=110/2;
 3/5=5,11=2,16=1,25=1,30=1,71=1,74=-5/1,2,3;
 4/5=5,16=3,69=1/1;
 5/5=2,38=5/2;
 7//1,2,3,16;
 1/14=-1,18=20,19=15,26=3/3(-5);
 2/9=110/2;
 6/7=2,8=2,9=2,10=2,19=2,28=1/1;
 99/9=1/99;
 -------------------
 Title Card Required
 -------------------
 Symbolic Z-matrix:
 Charge =  0 Multiplicity = 1
 F(PDBName=F1,ResName=MOL,ResNum=1) 0     10.514    5.307    -9.311    L 
 O(PDBName=O2,ResName=MOL,ResNum=1) 0     5.484     5.64     -9.554    L 
 O(PDBName=O3,ResName=MOL,ResNum=1) 0     15.147    6.415    -9.507    L 
 O(PDBName=O4,ResName=MOL,ResNum=1) 0     2.992     6.802    -9.306    L 
 O(PDBName=O5,ResName=MOL,ResNum=1) 0     2.906     9.058    -9.157    L 
 N(PDBName=N6,ResName=MOL,ResNum=1) 0     6.975     9.48     -9.143    L 
 N(PDBName=N7,ResName=MOL,ResNum=1) 0     11.392    8.046    -9.118    L 
 N(PDBName=N8,ResName=MOL,ResNum=1) 0     9.171     8.685    -9.151    L 
 N(PDBName=N9,ResName=MOL,ResNum=1) 0     14.965    7.79     -9.24     L 
 N(PDBName=N10,ResName=MOL,ResNum=1) 0     13.694    11.96    -9.462    L 
 C(PDBName=C11,ResName=MOL,ResNum=1) 0     7.488     10.824   -8.958    L 
 C(PDBName=C12,ResName=MOL,ResNum=1) 0     6.768     11.983   -9.584    L 
 C(PDBName=C13,ResName=MOL,ResNum=1) 0     8.116     11.559   -10.104   L 
 C(PDBName=C14,ResName=MOL,ResNum=1) 0     7.863     8.396    -9.209    L 
 C(PDBName=C15,ResName=MOL,ResNum=1) 0     13.271    9.506    -8.878    L 
 C(PDBName=C16,ResName=MOL,ResNum=1) 0     11.759    9.467    -9.136    L 
 C(PDBName=C17,ResName=MOL,ResNum=1) 0     12.546    7.17     -9.335    L 
 C(PDBName=C18,ResName=MOL,ResNum=1) 0     5.638     9.242    -9.146    L 
 C(PDBName=C19,ResName=MOL,ResNum=1) 0     13.714    8.093    -9.165    L 
 C(PDBName=C20,ResName=MOL,ResNum=1) 0     10.076    7.685    -9.19     L 
 C(PDBName=C21,ResName=MOL,ResNum=1) 0     7.338     7.1      -9.329    L 
 C(PDBName=C22,ResName=MOL,ResNum=1) 0     14.019    10.562   -9.721    L 
 C(PDBName=C23,ResName=MOL,ResNum=1) 0     5.055     8.002    -9.27     L 
 C(PDBName=C24,ResName=MOL,ResNum=1) 0     5.893     6.806    -9.401    L 
 C(PDBName=C25,ResName=MOL,ResNum=1) 0     9.612     6.341    -9.294    L 
 C(PDBName=C26,ResName=MOL,ResNum=1) 0     8.278     6.056    -9.37     L 
 C(PDBName=C27,ResName=MOL,ResNum=1) 0     3.578     8.024    -9.241    L 
 C(PDBName=C28,ResName=MOL,ResNum=1) 0     16.555    6.147    -9.575    L 
 H(PDBName=H29,ResName=MOL,ResNum=1) 0     7.935     10.972   -7.974    L 
 H(PDBName=H30,ResName=MOL,ResNum=1) 0     6.685     12.896   -8.998    L 
 H(PDBName=H31,ResName=MOL,ResNum=1) 0     5.903     11.776   -10.213   L 
 H(PDBName=H32,ResName=MOL,ResNum=1) 0     8.142     11.053   -11.068   L 
 H(PDBName=H33,ResName=MOL,ResNum=1) 0     8.988     12.176   -9.887    L 
 H(PDBName=H34,ResName=MOL,ResNum=1) 0     13.46     9.721    -7.811    L 
 H(PDBName=H35,ResName=MOL,ResNum=1) 0     11.17     10.013   -8.389    L 
 H(PDBName=H36,ResName=MOL,ResNum=1) 0     11.515    9.908    -10.122   L 
 H(PDBName=H37,ResName=MOL,ResNum=1) 0     12.553    6.712    -10.34    L 
 H(PDBName=H38,ResName=MOL,ResNum=1) 0     12.586    6.343    -8.611    L 
 H(PDBName=H39,ResName=MOL,ResNum=1) 0     4.998     10.116   -9.041    L 
 H(PDBName=H40,ResName=MOL,ResNum=1) 0     13.829    10.355   -10.787   L 
 H(PDBName=H41,ResName=MOL,ResNum=1) 0     15.097    10.421   -9.564    L 
 H(PDBName=H42,ResName=MOL,ResNum=1) 0     7.919     5.03     -9.457    L 
 H(PDBName=H43,ResName=MOL,ResNum=1) 0     13.917    12.236   -8.497    L 
 H(PDBName=H44,ResName=MOL,ResNum=1) 0     12.706    12.18    -9.638    L 
 H(PDBName=H45,ResName=MOL,ResNum=1) 0     2.025     6.988    -9.268    L 
 H(PDBName=H46,ResName=MOL,ResNum=1) 0     17.046    6.401    -8.624    L 
 H(PDBName=H47,ResName=MOL,ResNum=1) 0     17.021    6.714    -10.394   L 
 H(PDBName=H48,ResName=MOL,ResNum=1) 0     16.636    5.071    -9.766    L 
 
 Center=     10.01954167      8.73391667     -9.36050000
 Residue   1 PDB Number     1_0 MOL charge    0.00000000 layers R        AvRTP=      0.00000000      0.00000000      0.00000000

 GradGradGradGradGradGradGradGradGradGradGradGradGradGradGradGradGradGrad
 Berny optimization.
 Initialization pass.
                           ----------------------------
                           !    Initial Parameters    !
                           ! (Angstroms and Degrees)  !
 --------------------------                            --------------------------
 ! Name  Definition              Value          Derivative Info.                !
 --------------------------------------------------------------------------------
 ! R1    R(1,25)                 1.3722         estimate D2E/DX2                !
 ! R2    R(2,24)                 1.2451         estimate D2E/DX2                !
 ! R3    R(3,9)                  1.4125         estimate D2E/DX2                !
 ! R4    R(3,28)                 1.4349         estimate D2E/DX2                !
 ! R5    R(4,27)                 1.3568         estimate D2E/DX2                !
 ! R6    R(4,45)                 0.9855         estimate D2E/DX2                !
 ! R7    R(5,27)                 1.236          estimate D2E/DX2                !
 ! R8    R(6,11)                 1.4504         estimate D2E/DX2                !
 ! R9    R(6,14)                 1.4028         estimate D2E/DX2                !
 ! R10   R(6,18)                 1.358          estimate D2E/DX2                !
 ! R11   R(7,16)                 1.4677         estimate D2E/DX2                !
 ! R12   R(7,17)                 1.465          estimate D2E/DX2                !
 ! R13   R(7,20)                 1.3665         estimate D2E/DX2                !
 ! R14   R(8,14)                 1.3408         estimate D2E/DX2                !
 ! R15   R(8,20)                 1.3493         estimate D2E/DX2                !
 ! R16   R(9,19)                 1.2894         estimate D2E/DX2                !
 ! R17   R(10,22)                1.4585         estimate D2E/DX2                !
 ! R18   R(10,43)                1.0282         estimate D2E/DX2                !
 ! R19   R(10,44)                1.0274         estimate D2E/DX2                !
 ! R20   R(11,12)                1.5012         estimate D2E/DX2                !
 ! R21   R(11,13)                1.4993         estimate D2E/DX2                !
 ! R22   R(11,29)                1.0909         estimate D2E/DX2                !
 ! R23   R(12,13)                1.5057         estimate D2E/DX2                !
 ! R24   R(12,30)                1.0881         estimate D2E/DX2                !
 ! R25   R(12,31)                1.0894         estimate D2E/DX2                !
 ! R26   R(13,32)                1.089          estimate D2E/DX2                !
 ! R27   R(13,33)                1.09           estimate D2E/DX2                !
 ! R28   R(14,21)                1.4034         estimate D2E/DX2                !
 ! R29   R(15,16)                1.5343         estimate D2E/DX2                !
 ! R30   R(15,19)                1.5084         estimate D2E/DX2                !
 ! R31   R(15,22)                1.5444         estimate D2E/DX2                !
 ! R32   R(15,34)                1.1047         estimate D2E/DX2                !
 ! R33   R(16,35)                1.0968         estimate D2E/DX2                !
 ! R34   R(16,36)                1.1073         estimate D2E/DX2                !
 ! R35   R(17,19)                1.4984         estimate D2E/DX2                !
 ! R36   R(17,37)                1.1045         estimate D2E/DX2                !
 ! R37   R(17,38)                1.0999         estimate D2E/DX2                !
 ! R38   R(18,23)                1.3758         estimate D2E/DX2                !
 ! R39   R(18,39)                1.0883         estimate D2E/DX2                !
 ! R40   R(20,25)                1.4256         estimate D2E/DX2                !
 ! R41   R(21,24)                1.4764         estimate D2E/DX2                !
 ! R42   R(21,26)                1.4054         estimate D2E/DX2                !
 ! R43   R(22,40)                1.1024         estimate D2E/DX2                !
 ! R44   R(22,41)                1.0985         estimate D2E/DX2                !
 ! R45   R(23,24)                1.4662         estimate D2E/DX2                !
 ! R46   R(23,27)                1.4774         estimate D2E/DX2                !
 ! R47   R(25,26)                1.3662         estimate D2E/DX2                !
 ! R48   R(26,42)                1.0905         estimate D2E/DX2                !
 ! R49   R(28,46)                1.1            estimate D2E/DX2                !
 ! R50   R(28,47)                1.0997         estimate D2E/DX2                !
 ! R51   R(28,48)                1.0958         estimate D2E/DX2                !
 ! A1    A(9,3,28)             108.4947         estimate D2E/DX2                !
 ! A2    A(27,4,45)            104.594          estimate D2E/DX2                !
 ! A3    A(11,6,14)            119.8767         estimate D2E/DX2                !
 ! A4    A(11,6,18)            120.7233         estimate D2E/DX2                !
 ! A5    A(14,6,18)            119.188          estimate D2E/DX2                !
 ! A6    A(16,7,17)            112.3421         estimate D2E/DX2                !
 ! A7    A(16,7,20)            119.7304         estimate D2E/DX2                !
 ! A8    A(17,7,20)            126.3582         estimate D2E/DX2                !
 ! A9    A(14,8,20)            119.5593         estimate D2E/DX2                !
 ! A10   A(3,9,19)             111.3944         estimate D2E/DX2                !
 ! A11   A(22,10,43)           112.0647         estimate D2E/DX2                !
 ! A12   A(22,10,44)           112.9005         estimate D2E/DX2                !
 ! A13   A(43,10,44)           108.1724         estimate D2E/DX2                !
 ! A14   A(6,11,12)            119.5104         estimate D2E/DX2                !
 ! A15   A(6,11,13)            120.3254         estimate D2E/DX2                !
 ! A16   A(6,11,29)            112.6875         estimate D2E/DX2                !
 ! A17   A(12,11,29)           117.9008         estimate D2E/DX2                !
 ! A18   A(13,11,29)           116.8292         estimate D2E/DX2                !
 ! A19   A(11,12,30)           117.377          estimate D2E/DX2                !
 ! A20   A(11,12,31)           118.3536         estimate D2E/DX2                !
 ! A21   A(13,12,30)           119.3781         estimate D2E/DX2                !
 ! A22   A(13,12,31)           117.2546         estimate D2E/DX2                !
 ! A23   A(30,12,31)           114.1955         estimate D2E/DX2                !
 ! A24   A(11,13,32)           117.3109         estimate D2E/DX2                !
 ! A25   A(11,13,33)           117.413          estimate D2E/DX2                !
 ! A26   A(12,13,32)           117.2516         estimate D2E/DX2                !
 ! A27   A(12,13,33)           119.2112         estimate D2E/DX2                !
 ! A28   A(32,13,33)           114.8422         estimate D2E/DX2                !
 ! A29   A(6,14,8)             116.6749         estimate D2E/DX2                !
 ! A30   A(6,14,21)            118.7372         estimate D2E/DX2                !
 ! A31   A(8,14,21)            124.5879         estimate D2E/DX2                !
 ! A32   A(16,15,19)           103.5098         estimate D2E/DX2                !
 ! A33   A(16,15,22)           113.7572         estimate D2E/DX2                !
 ! A34   A(16,15,34)           109.6299         estimate D2E/DX2                !
 ! A35   A(19,15,22)           113.2295         estimate D2E/DX2                !
 ! A36   A(19,15,34)           108.4114         estimate D2E/DX2                !
 ! A37   A(22,15,34)           108.1352         estimate D2E/DX2                !
 ! A38   A(7,16,15)            105.6017         estimate D2E/DX2                !
 ! A39   A(7,16,35)            109.8354         estimate D2E/DX2                !
 ! A40   A(7,16,36)            109.9617         estimate D2E/DX2                !
 ! A41   A(15,16,35)           113.7037         estimate D2E/DX2                !
 ! A42   A(15,16,36)           110.9            estimate D2E/DX2                !
 ! A43   A(35,16,36)           106.8488         estimate D2E/DX2                !
 ! A44   A(7,17,19)            103.2319         estimate D2E/DX2                !
 ! A45   A(7,17,37)            112.8139         estimate D2E/DX2                !
 ! A46   A(7,17,38)            112.3804         estimate D2E/DX2                !
 ! A47   A(19,17,37)           110.7167         estimate D2E/DX2                !
 ! A48   A(19,17,38)           111.1094         estimate D2E/DX2                !
 ! A49   A(37,17,38)           106.6754         estimate D2E/DX2                !
 ! A50   A(6,18,23)            125.1237         estimate D2E/DX2                !
 ! A51   A(6,18,39)            115.9759         estimate D2E/DX2                !
 ! A52   A(23,18,39)           118.9004         estimate D2E/DX2                !
 ! A53   A(9,19,15)            121.0755         estimate D2E/DX2                !
 ! A54   A(9,19,17)            127.2269         estimate D2E/DX2                !
 ! A55   A(15,19,17)           111.6976         estimate D2E/DX2                !
 ! A56   A(7,20,8)             116.6553         estimate D2E/DX2                !
 ! A57   A(7,20,25)            124.4946         estimate D2E/DX2                !
 ! A58   A(8,20,25)            118.8491         estimate D2E/DX2                !
 ! A59   A(14,21,24)           123.6555         estimate D2E/DX2                !
 ! A60   A(14,21,26)           115.9932         estimate D2E/DX2                !
 ! A61   A(24,21,26)           120.3499         estimate D2E/DX2                !
 ! A62   A(10,22,15)           116.7786         estimate D2E/DX2                !
 ! A63   A(10,22,40)           108.2582         estimate D2E/DX2                !
 ! A64   A(10,22,41)           108.4421         estimate D2E/DX2                !
 ! A65   A(15,22,40)           108.4178         estimate D2E/DX2                !
 ! A66   A(15,22,41)           108.0301         estimate D2E/DX2                !
 ! A67   A(40,22,41)           106.4539         estimate D2E/DX2                !
 ! A68   A(18,23,24)           120.069          estimate D2E/DX2                !
 ! A69   A(18,23,27)           114.1063         estimate D2E/DX2                !
 ! A70   A(24,23,27)           125.8215         estimate D2E/DX2                !
 ! A71   A(2,24,21)            120.9302         estimate D2E/DX2                !
 ! A72   A(2,24,23)            125.9529         estimate D2E/DX2                !
 ! A73   A(21,24,23)           113.1164         estimate D2E/DX2                !
 ! A74   A(1,25,20)            119.8234         estimate D2E/DX2                !
 ! A75   A(1,25,26)            118.9431         estimate D2E/DX2                !
 ! A76   A(20,25,26)           121.2323         estimate D2E/DX2                !
 ! A77   A(21,26,25)           119.7675         estimate D2E/DX2                !
 ! A78   A(21,26,42)           118.7543         estimate D2E/DX2                !
 ! A79   A(25,26,42)           121.4774         estimate D2E/DX2                !
 ! A80   A(4,27,5)             121.4581         estimate D2E/DX2                !
 ! A81   A(4,27,23)            114.6716         estimate D2E/DX2                !
 ! A82   A(5,27,23)            123.8691         estimate D2E/DX2                !
 ! A83   A(3,28,46)            110.726          estimate D2E/DX2                !
 ! A84   A(3,28,47)            110.7809         estimate D2E/DX2                !
 ! A85   A(3,28,48)            105.3187         estimate D2E/DX2                !
 ! A86   A(46,28,47)           109.6125         estimate D2E/DX2                !
 ! A87   A(46,28,48)           110.1469         estimate D2E/DX2                !
 ! A88   A(47,28,48)           110.1897         estimate D2E/DX2                !
 ! D1    D(28,3,9,19)         -179.9024         estimate D2E/DX2                !
 ! D2    D(9,3,28,46)           60.0394         estimate D2E/DX2                !
 ! D3    D(9,3,28,47)          -61.7936         estimate D2E/DX2                !
 ! D4    D(9,3,28,48)          179.0831         estimate D2E/DX2                !
 ! D5    D(45,4,27,5)           -0.1126         estimate D2E/DX2                !
 ! D6    D(45,4,27,23)         179.4996         estimate D2E/DX2                !
 ! D7    D(14,6,11,12)         147.3257         estimate D2E/DX2                !
 ! D8    D(14,6,11,13)          76.5722         estimate D2E/DX2                !
 ! D9    D(14,6,11,29)         -67.6477         estimate D2E/DX2                !
 ! D10   D(18,6,11,12)         -38.0073         estimate D2E/DX2                !
 ! D11   D(18,6,11,13)        -108.7608         estimate D2E/DX2                !
 ! D12   D(18,6,11,29)         107.0193         estimate D2E/DX2                !
 ! D13   D(11,6,14,8)           -2.7677         estimate D2E/DX2                !
 ! D14   D(11,6,14,21)         177.2134         estimate D2E/DX2                !
 ! D15   D(18,6,14,8)         -177.5167         estimate D2E/DX2                !
 ! D16   D(18,6,14,21)           2.4644         estimate D2E/DX2                !
 ! D17   D(11,6,18,23)        -177.7802         estimate D2E/DX2                !
 ! D18   D(11,6,18,39)           2.2339         estimate D2E/DX2                !
 ! D19   D(14,6,18,23)          -3.0769         estimate D2E/DX2                !
 ! D20   D(14,6,18,39)         176.9372         estimate D2E/DX2                !
 ! D21   D(17,7,16,15)         -19.7632         estimate D2E/DX2                !
 ! D22   D(17,7,16,35)        -142.7494         estimate D2E/DX2                !
 ! D23   D(17,7,16,36)          99.9383         estimate D2E/DX2                !
 ! D24   D(20,7,16,15)         173.6266         estimate D2E/DX2                !
 ! D25   D(20,7,16,35)          50.6404         estimate D2E/DX2                !
 ! D26   D(20,7,16,36)         -66.6719         estimate D2E/DX2                !
 ! D27   D(16,7,17,19)          13.104          estimate D2E/DX2                !
 ! D28   D(16,7,17,37)        -106.4436         estimate D2E/DX2                !
 ! D29   D(16,7,17,38)         132.9012         estimate D2E/DX2                !
 ! D30   D(20,7,17,19)         178.6441         estimate D2E/DX2                !
 ! D31   D(20,7,17,37)          59.0965         estimate D2E/DX2                !
 ! D32   D(20,7,17,38)         -61.5587         estimate D2E/DX2                !
 ! D33   D(16,7,20,8)           -5.9126         estimate D2E/DX2                !
 ! D34   D(16,7,20,25)         174.4599         estimate D2E/DX2                !
 ! D35   D(17,7,20,8)         -170.4882         estimate D2E/DX2                !
 ! D36   D(17,7,20,25)           9.8844         estimate D2E/DX2                !
 ! D37   D(20,8,14,6)          179.0447         estimate D2E/DX2                !
 ! D38   D(20,8,14,21)          -0.9352         estimate D2E/DX2                !
 ! D39   D(14,8,20,7)         -179.5782         estimate D2E/DX2                !
 ! D40   D(14,8,20,25)           0.0713         estimate D2E/DX2                !
 ! D41   D(3,9,19,15)          179.5992         estimate D2E/DX2                !
 ! D42   D(3,9,19,17)           -0.3768         estimate D2E/DX2                !
 ! D43   D(43,10,22,15)         61.6442         estimate D2E/DX2                !
 ! D44   D(43,10,22,40)       -175.7298         estimate D2E/DX2                !
 ! D45   D(43,10,22,41)        -60.6157         estimate D2E/DX2                !
 ! D46   D(44,10,22,15)        -60.8045         estimate D2E/DX2                !
 ! D47   D(44,10,22,40)         61.8215         estimate D2E/DX2                !
 ! D48   D(44,10,22,41)        176.9356         estimate D2E/DX2                !
 ! D49   D(6,11,12,30)         140.087          estimate D2E/DX2                !
 ! D50   D(6,11,12,31)          -3.4187         estimate D2E/DX2                !
 ! D51   D(29,11,12,30)         -3.1574         estimate D2E/DX2                !
 ! D52   D(29,11,12,31)       -146.6631         estimate D2E/DX2                !
 ! D53   D(6,11,13,32)           1.5876         estimate D2E/DX2                !
 ! D54   D(6,11,13,33)        -141.5855         estimate D2E/DX2                !
 ! D55   D(29,11,13,32)        144.3942         estimate D2E/DX2                !
 ! D56   D(29,11,13,33)          1.2211         estimate D2E/DX2                !
 ! D57   D(30,12,13,32)       -146.2081         estimate D2E/DX2                !
 ! D58   D(30,12,13,33)         -0.1685         estimate D2E/DX2                !
 ! D59   D(31,12,13,32)         -1.2156         estimate D2E/DX2                !
 ! D60   D(31,12,13,33)        144.824          estimate D2E/DX2                !
 ! D61   D(6,14,21,24)           0.4849         estimate D2E/DX2                !
 ! D62   D(6,14,21,26)        -179.0795         estimate D2E/DX2                !
 ! D63   D(8,14,21,24)        -179.5356         estimate D2E/DX2                !
 ! D64   D(8,14,21,26)           0.8999         estimate D2E/DX2                !
 ! D65   D(19,15,16,7)          17.3281         estimate D2E/DX2                !
 ! D66   D(19,15,16,35)        137.816          estimate D2E/DX2                !
 ! D67   D(19,15,16,36)       -101.7529         estimate D2E/DX2                !
 ! D68   D(22,15,16,7)         140.6229         estimate D2E/DX2                !
 ! D69   D(22,15,16,35)        -98.8892         estimate D2E/DX2                !
 ! D70   D(22,15,16,36)         21.5419         estimate D2E/DX2                !
 ! D71   D(34,15,16,7)         -98.1752         estimate D2E/DX2                !
 ! D72   D(34,15,16,35)         22.3127         estimate D2E/DX2                !
 ! D73   D(34,15,16,36)        142.7438         estimate D2E/DX2                !
 ! D74   D(16,15,19,9)         169.8609         estimate D2E/DX2                !
 ! D75   D(16,15,19,17)        -10.1596         estimate D2E/DX2                !
 ! D76   D(22,15,19,9)          46.2191         estimate D2E/DX2                !
 ! D77   D(22,15,19,17)       -133.8015         estimate D2E/DX2                !
 ! D78   D(34,15,19,9)         -73.7721         estimate D2E/DX2                !
 ! D79   D(34,15,19,17)        106.2074         estimate D2E/DX2                !
 ! D80   D(16,15,22,10)         64.8799         estimate D2E/DX2                !
 ! D81   D(16,15,22,40)        -57.6634         estimate D2E/DX2                !
 ! D82   D(16,15,22,41)       -172.6461         estimate D2E/DX2                !
 ! D83   D(19,15,22,10)       -177.3012         estimate D2E/DX2                !
 ! D84   D(19,15,22,40)         60.1556         estimate D2E/DX2                !
 ! D85   D(19,15,22,41)        -54.8272         estimate D2E/DX2                !
 ! D86   D(34,15,22,10)        -57.1524         estimate D2E/DX2                !
 ! D87   D(34,15,22,40)       -179.6957         estimate D2E/DX2                !
 ! D88   D(34,15,22,41)         65.3216         estimate D2E/DX2                !
 ! D89   D(7,17,19,9)          178.8538         estimate D2E/DX2                !
 ! D90   D(7,17,19,15)          -1.1241         estimate D2E/DX2                !
 ! D91   D(37,17,19,9)         -60.1635         estimate D2E/DX2                !
 ! D92   D(37,17,19,15)        119.8586         estimate D2E/DX2                !
 ! D93   D(38,17,19,9)          58.1867         estimate D2E/DX2                !
 ! D94   D(38,17,19,15)       -121.7912         estimate D2E/DX2                !
 ! D95   D(6,18,23,24)           0.5555         estimate D2E/DX2                !
 ! D96   D(6,18,23,27)         179.9346         estimate D2E/DX2                !
 ! D97   D(39,18,23,24)       -179.459          estimate D2E/DX2                !
 ! D98   D(39,18,23,27)         -0.0799         estimate D2E/DX2                !
 ! D99   D(7,20,25,1)            0.7893         estimate D2E/DX2                !
 ! D100  D(7,20,25,26)        -179.5967         estimate D2E/DX2                !
 ! D101  D(8,20,25,1)         -178.8306         estimate D2E/DX2                !
 ! D102  D(8,20,25,26)           0.7834         estimate D2E/DX2                !
 ! D103  D(14,21,24,2)         177.4776         estimate D2E/DX2                !
 ! D104  D(14,21,24,23)         -2.7494         estimate D2E/DX2                !
 ! D105  D(26,21,24,2)          -2.9761         estimate D2E/DX2                !
 ! D106  D(26,21,24,23)        176.7969         estimate D2E/DX2                !
 ! D107  D(14,21,26,25)         -0.0077         estimate D2E/DX2                !
 ! D108  D(14,21,26,42)        179.6604         estimate D2E/DX2                !
 ! D109  D(24,21,26,25)       -179.5875         estimate D2E/DX2                !
 ! D110  D(24,21,26,42)          0.0806         estimate D2E/DX2                !
 ! D111  D(18,23,24,2)        -178.0056         estimate D2E/DX2                !
 ! D112  D(18,23,24,21)          2.235          estimate D2E/DX2                !
 ! D113  D(27,23,24,2)           2.6933         estimate D2E/DX2                !
 ! D114  D(27,23,24,21)       -177.0661         estimate D2E/DX2                !
 ! D115  D(18,23,27,4)        -177.3664         estimate D2E/DX2                !
 ! D116  D(18,23,27,5)           2.2352         estimate D2E/DX2                !
 ! D117  D(24,23,27,4)           1.971          estimate D2E/DX2                !
 ! D118  D(24,23,27,5)        -178.4274         estimate D2E/DX2                !
 ! D119  D(1,25,26,21)         178.8216         estimate D2E/DX2                !
 ! D120  D(1,25,26,42)          -0.8372         estimate D2E/DX2                !
 ! D121  D(20,25,26,21)         -0.7957         estimate D2E/DX2                !
 ! D122  D(20,25,26,42)        179.5455         estimate D2E/DX2                !
 --------------------------------------------------------------------------------
 Trust Radius=3.00D-01 FncErr=1.00D-07 GrdErr=1.00D-06
 Number of steps in this run=    271 maximum allowed number of steps=    288.
 GradGradGradGradGradGradGradGradGradGradGradGradGradGradGradGradGradGrad

                          Input orientation:                          
 ---------------------------------------------------------------------
 Center     Atomic      Atomic             Coordinates (Angstroms)
 Number     Number       Type             X           Y           Z
 ---------------------------------------------------------------------
      1          9           0       10.514000    5.307000   -9.311000
      2          8           0        5.484000    5.640000   -9.554000
      3          8           0       15.147000    6.415000   -9.507000
      4          8           0        2.992000    6.802000   -9.306000
      5          8           0        2.906000    9.058000   -9.157000
      6          7           0        6.975000    9.480000   -9.143000
      7          7           0       11.392000    8.046000   -9.118000
      8          7           0        9.171000    8.685000   -9.151000
      9          7           0       14.965000    7.790000   -9.240000
     10          7           0       13.694000   11.960000   -9.462000
     11          6           0        7.488000   10.824000   -8.958000
     12          6           0        6.768000   11.983000   -9.584000
     13          6           0        8.116000   11.559000  -10.104000
     14          6           0        7.863000    8.396000   -9.209000
     15          6           0       13.271000    9.506000   -8.878000
     16          6           0       11.759000    9.467000   -9.136000
     17          6           0       12.546000    7.170000   -9.335000
     18          6           0        5.638000    9.242000   -9.146000
     19          6           0       13.714000    8.093000   -9.165000
     20          6           0       10.076000    7.685000   -9.190000
     21          6           0        7.338000    7.100000   -9.329000
     22          6           0       14.019000   10.562000   -9.721000
     23          6           0        5.055000    8.002000   -9.270000
     24          6           0        5.893000    6.806000   -9.401000
     25          6           0        9.612000    6.341000   -9.294000
     26          6           0        8.278000    6.056000   -9.370000
     27          6           0        3.578000    8.024000   -9.241000
     28          6           0       16.555000    6.147000   -9.575000
     29          1           0        7.935000   10.972000   -7.974000
     30          1           0        6.685000   12.896000   -8.998000
     31          1           0        5.903000   11.776000  -10.213000
     32          1           0        8.142000   11.053000  -11.068000
     33          1           0        8.988000   12.176000   -9.887000
     34          1           0       13.460000    9.721000   -7.811000
     35          1           0       11.170000   10.013000   -8.389000
     36          1           0       11.515000    9.908000  -10.122000
     37          1           0       12.553000    6.712000  -10.340000
     38          1           0       12.586000    6.343000   -8.611000
     39          1           0        4.998000   10.116000   -9.041000
     40          1           0       13.829000   10.355000  -10.787000
     41          1           0       15.097000   10.421000   -9.564000
     42          1           0        7.919000    5.030000   -9.457000
     43          1           0       13.917000   12.236000   -8.497000
     44          1           0       12.706000   12.180000   -9.638000
     45          1           0        2.025000    6.988000   -9.268000
     46          1           0       17.046000    6.401000   -8.624000
     47          1           0       17.021000    6.714000  -10.394000
     48          1           0       16.636000    5.071000   -9.766000
 ---------------------------------------------------------------------
                    Distance matrix (angstroms):
                    1          2          3          4          5
     1  F    0.000000
     2  O    5.046864   0.000000
     3  O    4.767680   9.694143   0.000000
     4  O    7.669129   2.760763  12.162820   0.000000
     5  O    8.483831   4.299583  12.527970   2.262550   0.000000
     6  N    5.474182   4.139759   8.735462   4.802348   4.090848
     7  N    2.882751   6.394013   4.112360   8.493696   8.546219
     8  N    3.638699   4.798792   6.402516   6.461405   6.276097
     9  N    5.097228   9.726791   1.412458  12.013877  12.125766
    10  N    7.375474  10.361224   5.732387  11.881166  11.175669
    11  C    6.302267   5.589731   8.854432   6.042483   4.914578
    12  C    7.660027   6.471723  10.060626   6.417026   4.863435
    13  C    6.742904   6.501114   8.732245   7.037132   5.856271
    14  C    4.071870   3.657076   7.554457   5.126099   5.001280
    15  C    5.041839   8.720109   3.670054  10.637323  10.378428
    16  C    4.345831   7.361812   4.575029   9.164683   8.862468
    17  C    2.756877   7.229157   2.713818   9.561129   9.824756
    18  C    6.267920   3.628303   9.926899   3.602848   2.738211
    19  C    4.245364   8.596594   2.232966  10.800363  10.850998
    20  C    2.421026   5.039939   5.237216   7.139762   7.300351
    21  C    3.647211   2.370557   7.841007   4.356265   4.848296
    22  C    6.329941   9.853943   4.302998  11.657811  11.228485
    23  C    6.088135   2.417383  10.218767   2.386894   2.397104
    24  C    4.858883   1.245089   9.262863   2.902558   3.748761
    25  C    1.372242   4.195162   5.539591   6.636043   7.236801
    26  C    2.358851   2.830786   6.879739   5.338765   6.157577
    27  C    7.449502   3.068267  11.683381   1.356800   1.236040
    28  C    6.104832  11.082623   1.434891  13.581471  13.962229
    29  H    6.366399   6.077337   8.667715   6.602755   5.509422
    30  H    8.506006   7.375708  10.670890   7.132317   5.388540
    31  H    7.995179   6.185494  10.709355   5.834145   4.181467
    32  H    6.459872   6.217534   8.545045   6.906384   5.920105
    33  H    7.060001   7.423490   8.441967   8.072760   6.873540
    34  H    5.514736   9.127387   4.080689  10.969713  10.660122
    35  H    4.840130   7.267114   5.478326   8.833521   8.354373
    36  H    4.777962   7.410223   5.076485   9.107943   8.704516
    37  H    2.681490   7.192895   2.740608   9.617171   9.998391
    38  H    2.420017   7.198740   2.714170   9.630085  10.068353
    39  H    7.322953   4.531439  10.812805   3.882893   2.347186
    40  H    6.216921   9.663878   4.347312  11.500336  11.119849
    41  H    6.871746  10.736286   4.006717  12.637039  12.273708
    42  H    2.613823   2.512117   7.359668   5.238140   6.437775
    43  H    7.762348  10.758251   6.034653  12.228592  11.479434
    44  H    7.221490   9.743508   6.261858  11.108326  10.296516
    45  H    8.653943   3.723383  13.136679   0.985459   2.252417
    46  H    6.658516  11.624279   2.094298  14.076251  14.397338
    47  H    6.744893  11.617291   2.094766  14.071401  14.361676
    48  H    6.143420  11.168519   2.022508  13.761057  14.310135
                    6          7          8          9         10
     6  N    0.000000
     7  N    4.644014   0.000000
     8  N    2.335488   2.311331   0.000000
     9  N    8.167350   3.584236   5.863393   0.000000
    10  N    7.169179   4.553783   5.592841   4.365046   0.000000
    11  C    1.450424   4.794174   2.728564   8.074045   6.329214
    12  C    2.549968   6.090854   4.103499   9.213598   6.927113
    13  C    2.558836   4.903625   3.206417   7.865155   5.629125
    14  C    1.402839   3.547481   1.340802   7.127875   6.838616
    15  C    6.301628   2.391619   4.190295   2.438306   2.557753
    16  C    4.784023   1.467738   2.703607   3.619611   3.172625
    17  C    6.033987   1.464985   3.704012   2.498997   4.927285
    18  C    1.358021   5.877050   3.576641   9.439813   8.508027
    19  C    6.880289   2.322951   4.581431   1.289354   3.878440
    20  C    3.583355   1.366514   1.349276   4.890383   5.607097
    21  C    2.414698   4.168255   2.429773   7.658665   8.002251
    22  C    7.150017   3.687139   5.229831   2.968208   1.458462
    23  C    2.426317   6.338975   4.173980   9.912313   9.504470
    24  C    2.896129   5.644173   3.786611   9.126629   9.350029
    25  C    4.102425   2.471113   2.389407   5.545911   6.947238
    26  C    3.670574   3.704133   2.785148   6.909387   8.012411
    27  C    3.697181   7.814999   5.632643  11.389404  10.856997
    28  C   10.152434   5.520110   7.819506   2.310795   6.479897
    29  H    2.124671   4.671302   2.853663   7.819769   6.029624
    30  H    3.431353   6.759641   4.892456   9.730786   7.086429
    31  H    2.750582   6.726146   4.621899   9.947601   7.829274
    32  H    2.746242   4.838083   3.215766   7.780879   5.850349
    33  H    3.445885   4.840194   3.572431   7.441783   4.730086
    34  H    6.624766   2.964877   4.611336   2.834753   2.791716
    35  H    4.295420   2.109458   2.517981   4.479727   3.363438
    36  H    4.664035   2.119007   2.816541   4.143229   3.065020
    37  H    6.341034   2.149596   4.091989   2.861788   5.441899
    38  H    6.450358   2.140769   4.175978   2.854661   5.788139
    39  H    2.079286   6.721165   4.412912  10.236746   8.899325
    40  H    7.102512   3.749135   5.211752   3.203581   2.085635
    41  H    8.187161   4.423411   6.188840   2.654159   2.085026
    42  H    4.559850   4.612256   3.875586   7.570390   9.020840
    43  H    7.496947   4.931264   5.963374   4.627880   1.028168
    44  H    6.354478   4.368862   4.994839   4.953139   1.027385
    45  H    5.543301   9.427754   7.345666  12.964860  12.685582
    46  H   10.543939   5.909127   8.216448   2.576691   6.545275
    47  H   10.494659   5.923516   8.188552   2.591646   6.281566
    48  H   10.637778   6.063833   8.316577   3.234483   7.497073
                   11         12         13         14         15
    11  C    0.000000
    12  C    1.501185   0.000000
    13  C    1.499308   1.505749   0.000000
    14  C    2.469577   3.769114   3.296908   0.000000
    15  C    5.931830   6.994496   5.682597   5.530653   0.000000
    16  C    4.484927   5.607231   4.311025   4.041186   1.534350
    17  C    6.251177   7.524112   6.283278   4.842462   2.488246
    18  C    2.441427   2.996969   3.525158   2.381241   7.642265
    19  C    6.801786   7.972112   6.650750   5.859006   1.508372
    20  C    4.074910   5.437914   4.436764   2.324489   3.690719
    21  C    3.745439   4.922765   4.592231   1.403439   6.418156
    22  C    6.580636   7.390197   5.998842   6.545994   1.544438
    23  C    3.739053   4.345265   4.766291   2.836163   8.361718
    24  C    4.345641   5.253612   5.294048   2.538871   7.873907
    25  C    4.972078   6.324919   5.488319   2.699861   4.855776
    26  C    4.850533   6.120067   5.554098   2.381963   6.088893
    27  C    4.817488   5.095825   5.816738   4.301236   9.812357
    28  C   10.220837  11.394926  10.039238   8.985701   4.749036
    29  H    1.090857   2.230720   2.216806   2.857654   5.607073
    30  H    2.222520   1.088051   2.249126   4.656415   7.408232
    31  H    2.234626   1.089364   2.226284   4.034107   7.824484
    32  H    2.220869   2.225990   1.089040   3.254746   5.787569
    33  H    2.222824   2.248879   1.090028   4.001713   5.146948
    34  H    6.180372   7.283065   6.098724   5.919159   1.104733
    35  H    3.812952   4.968554   3.828610   3.771384   2.215936
    36  H    4.290767   5.208558   3.778800   4.056700   2.189218
    37  H    6.668785   7.862646   6.575414   5.109904   3.234100
    38  H    6.796276   8.161216   7.029695   5.184510   3.247319
    39  H    2.590030   2.629342   3.596407   3.345870   8.297060
    40  H    6.616153   7.345428   5.878305   6.474637   2.162509
    41  H    7.643725   8.474225   7.093730   7.520466   2.154553
    42  H    5.831398   7.048769   6.563936   3.375588   7.000980
    43  H    6.598356   7.235591   6.057423   7.204406   2.831144
    44  H    5.434028   5.941512   4.655201   6.160953   2.836741
    45  H    6.682467   6.895356   7.661150   6.005680  11.531042
    46  H   10.537070  11.735315  10.418266   9.415399   4.894504
    47  H   10.480090  11.556058  10.141851   9.386283   4.914877
    48  H   10.836779  12.049327  10.714420   9.398479   5.637463
                   16         17         18         19         20
    16  C    0.000000
    17  C    2.436222   0.000000
    18  C    6.125142   7.214525   0.000000
    19  C    2.389716   1.498350   8.157349   0.000000
    20  C    2.451720   2.527281   4.703406   3.660892   0.000000
    21  C    5.018484   5.208474   2.740739   6.454945   2.803246
    22  C    2.578536   3.718116   8.503775   2.549141   4.909821
    23  C    6.863512   7.537342   1.375814   8.660115   5.031633
    24  C    6.446790   6.663277   2.462549   7.929698   4.279562
    25  C    3.795583   3.049144   4.922436   4.462348   1.425640
    26  C    4.879246   4.411127   4.143715   5.808743   2.432868
    27  C    8.307950   9.009061   2.395026  10.136520   6.507037
    28  C    5.849507   4.144419  11.355349   3.467895   6.670166
    29  H    4.270626   6.129343   3.105269   6.565361   4.106934
    30  H    6.125566   8.200730   3.803923   8.514901   6.220150
    31  H    6.386247   8.131148   2.762222   8.699110   5.932684
    32  H    4.396670   6.121780   3.639206   6.590159   4.314008
    33  H    3.947293   6.166369   4.514414   6.287070   4.673182
    34  H    2.171069   3.108950   7.949550   2.132655   4.183108
    35  H    1.096835   3.297111   5.636534   3.280322   2.694071
    36  H    1.107345   3.029682   5.994603   3.007603   2.807325
    37  H    3.109675   1.104463   7.459475   2.153069   2.899096
    38  H    3.273978   1.099866   7.547525   2.154484   2.904532
    39  H    6.792742   8.107876   1.088348   8.948551   5.631878
    40  H    2.792713   3.728085   8.427582   2.785813   4.874866
    41  H    3.497934   4.138725   9.541355   2.737056   5.730272
    42  H    5.876701   5.099374   4.800065   6.561193   3.431175
    43  H    3.568283   5.314719   8.827632   4.201414   5.995426
    44  H    2.917050   5.021704   7.670106   4.235961   5.227105
    45  H   10.045577  10.522787   4.260184  11.741565   8.081491
    46  H    6.133096   4.620269  11.768017   3.775946   7.109846
    47  H    6.070438   4.621152  11.726934   3.787919   7.115159
    48  H    6.595972   4.617322  11.778695   4.246383   7.085081
                   21         22         23         24         25
    21  C    0.000000
    22  C    7.534910   0.000000
    23  C    2.455438   9.333290   0.000000
    24  C    1.476362   8.957779   1.466227   0.000000
    25  C    2.397578   6.117256   4.850335   3.749485   0.000000
    26  C    1.405424   7.306594   3.766251   2.500337   1.366220
    27  C    3.872870  10.755758   1.477448   2.620754   6.264539
    28  C    9.269402   5.093607  11.652641  10.683763   6.951392
    29  H    4.145458   6.343120   4.335310   4.854034   5.099107
    30  H    5.842053   7.730320   5.165474   6.154492   7.184913
    31  H    4.970479   8.221029   3.981385   5.035905   6.643829
    32  H    4.392806   6.049349   4.697976   5.086639   5.245085
    33  H    5.366530   5.286162   5.768141   6.217083   5.898156
    34  H    6.830289   2.160524   8.702165   8.263463   5.332053
    35  H    4.904426   3.192558   6.497192   6.257453   4.090229
    36  H    5.095198   2.618880   6.788987   6.461357   4.126800
    37  H    5.326245   4.165911   7.683034   6.726526   3.143444
    38  H    5.350708   4.591900   7.739672   6.755347   3.051421
    39  H    3.828159   9.057580   2.127131   3.447713   5.966878
    40  H    7.406340   1.102409   9.209830   8.803209   6.010352
    41  H    8.443124   1.098460  10.333429   9.889813   6.841383
    42  H    2.153798   8.239097   4.131616   2.694808   2.147449
    43  H    8.387727   2.076260   9.851869   9.730709   7.342973
    44  H    7.397115   2.085373   8.725188   8.680611   6.617031
    45  H    5.314530  12.523367   3.195168   3.874563   7.614582
    46  H    9.758632   5.261184  12.114644  11.187366   7.464372
    47  H    9.749036   4.926666  12.087493  11.172596   7.499494
    48  H    9.526837   6.082910  11.956435  10.888319   7.153479
                   26         27         28         29         30
    26  C    0.000000
    27  C    5.097025   0.000000
    28  C    8.280038  13.116296   0.000000
    29  H    5.121867   5.411048  10.007409   0.000000
    30  H    7.032896   5.783501  11.970749   2.512539   0.000000
    31  H    6.250574   4.519725  12.064733   3.128668   1.828155
    32  H    5.279366   5.774328   9.852738   3.101975   3.131198
    33  H    6.182701   6.850147   9.680169   2.493591   2.571484
    34  H    6.535735  10.128111   5.046206   5.667203   7.575633
    35  H    4.998387   7.894333   6.734299   3.399578   5.366358
    36  H    5.087394   8.204973   6.312363   4.308410   5.789682
    37  H    4.432478   9.136726   4.113448   6.713530   8.629962
    38  H    4.383756   9.185136   4.089092   6.592815   8.826856
    39  H    5.229746   2.536309  12.231205   3.239937   3.252110
    40  H    7.162604  10.625755   5.158225   6.559946   7.790631
    41  H    8.098742  11.770187   4.515857   7.357034   8.786793
    42  H    1.090471   5.277781   8.708738   6.124288   7.975424
    43  H    8.411471  11.188807   6.722875   6.136412   7.279315
    44  H    7.561903  10.037446   7.156526   5.195248   6.097106
    45  H    6.322898   1.867039  14.557556   7.243949   7.529473
    46  H    8.806439  13.579464   1.099999  10.214052  12.234183
    47  H    8.827321  13.555802   1.099730  10.321936  12.124308
    48  H    8.425153  13.398030   1.095818  10.664918  12.682383
                   31         32         33         34         35
    31  H    0.000000
    32  H    2.503373   0.000000
    33  H    3.127859   1.836193   0.000000
    34  H    8.191513   6.376786   5.507775   0.000000
    35  H    5.846061   4.174617   3.418142   2.379800   0.000000
    36  H    5.915425   3.685522   3.403642   3.026337   1.770124
    37  H    8.359589   6.231467   6.539857   4.033927   4.076235
    38  H    8.760501   6.926044   6.971203   3.579771   3.939954
    39  H    2.224457   3.856350   4.569400   8.560045   6.207197
    40  H    8.072806   5.736561   5.249888   3.065076   3.596894
    41  H    9.315947   7.143771   6.364294   2.498555   4.119274
    42  H    7.081265   6.238716   7.238299   7.444292   6.044825
    43  H    8.208560   6.431186   5.121596   2.646634   3.535449
    44  H    6.839200   4.913769   3.726331   3.154858   2.935164
    45  H    6.233527   7.561872   8.705279  11.846998   9.672347
    46  H   12.473251  10.339026   9.993856   4.954066   6.901387
    47  H   12.217468   9.905445   9.727260   5.328664   7.009824
    48  H   12.663101  10.470318  10.439711   5.960831   7.496442
                   36         37         38         39         40
    36  H    0.000000
    37  H    3.367400   0.000000
    38  H    4.017386   1.768245   0.000000
    39  H    6.609320   8.387648   8.485174   0.000000
    40  H    2.448802   3.885799   4.730346   9.005121   0.000000
    41  H    3.661319   4.564076   4.882972  10.117132   1.762926
    42  H    6.096583   5.008270   4.921440   5.879855   8.065521
    43  H    3.718846   5.980946   6.042517   9.183621   2.964794
    44  H    2.610502   5.515001   5.927875   8.001860   2.431451
    45  H    9.965732  10.586035  10.601056   4.321417  12.368446
    46  H    6.718260   4.819588   4.460396  12.614651   5.537307
    47  H    6.371158   4.468327   4.794367  12.568084   4.858003
    48  H    7.053222   4.437707   4.399376  12.705144   6.069790
                   41         42         43         44         45
    41  H    0.000000
    42  H    8.977640   0.000000
    43  H    2.413527   9.424651   0.000000
    44  H    2.969249   8.606430   1.664794   0.000000
    45  H   13.518517   6.213592  13.021352  11.881815   0.000000
    46  H    4.565370   9.266912   6.622235   7.297989  15.046254
    47  H    4.258230   9.303775   6.612557   7.004850  15.040710
    48  H    5.570622   8.722571   7.767918   8.123987  14.744633
                   46         47         48
    46  H    0.000000
    47  H    1.797636   0.000000
    48  H    1.800323   1.800572   0.000000
 Stoichiometry    C18H20FN5O4
 Framework group  C1[X(C18H20FN5O4)]
 Deg. of freedom   138
 Full point group                 C1      NOp   1
 Largest Abelian subgroup         C1      NOp   1
 Largest concise Abelian subgroup C1      NOp   1
                         Standard orientation:                         
 ---------------------------------------------------------------------
 Center     Atomic      Atomic             Coordinates (Angstroms)
 Number     Number       Type             X           Y           Z
 ---------------------------------------------------------------------
      1          9           0       -1.107349   -3.002843    0.004953
      2          8           0        3.924209   -2.723287    0.280835
      3          8           0       -5.728980   -1.841770    0.157272
      4          8           0        6.430694   -1.591380    0.039733
      5          8           0        6.542884    0.662007   -0.129952
      6          7           0        2.479040    1.128905   -0.177096
      7          7           0       -1.953382   -0.256248   -0.220200
      8          7           0        0.274314    0.358394   -0.177323
      9          7           0       -5.529785   -0.471476   -0.121394
     10          7           0       -4.213986    3.686113    0.070305
     11          6           0        1.982371    2.476683   -0.378456
     12          6           0        2.710806    3.633546    0.241711
     13          6           0        1.354526    3.229478    0.756020
     14          6           0        1.578569    0.055487   -0.107224
     15          6           0       -3.814251    1.222126   -0.487440
     16          6           0       -2.304639    1.168838   -0.218255
     17          6           0       -3.118577   -1.117303   -0.003209
     18          6           0        3.813250    0.876148   -0.162267
     19          6           0       -4.274988   -0.183081   -0.190287
     20          6           0       -0.642028   -0.631102   -0.135364
     21          6           0        2.088232   -1.245048    0.028773
     22          6           0       -4.556368    2.294330    0.340165
     23          6           0        4.381503   -0.368997   -0.022384
     24          6           0        3.529321   -1.554338    0.113900
     25          6           0       -0.193783   -1.979108   -0.015350
     26          6           0        1.136388   -2.278132    0.072896
     27          6           0        5.858824   -0.363638   -0.041006
     28          6           0       -7.140325   -2.093495    0.217709
     29          1           0        1.544007    2.620245   -1.366988
     30          1           0        2.808112    4.539947   -0.352278
     31          1           0        3.568982    3.422977    0.878821
     32          1           0        1.316082    2.733003    1.724546
     33          1           0        0.491011    3.854005    0.526958
     34          1           0       -3.993305    1.429033   -1.557751
     35          1           0       -1.704331    1.701139   -0.966140
     36          1           0       -2.062707    1.616480    0.765258
     37          1           0       -3.137777   -1.565603    1.005997
     38          1           0       -3.162679   -1.950668   -0.719633
     39          1           0        4.463677    1.741964   -0.270930
     40          1           0       -4.376219    2.095402    1.409407
     41          1           0       -5.634737    2.163792    0.176783
     42          1           0        1.483307   -3.307171    0.172155
     43          1           0       -4.427077    3.955362   -0.898832
     44          1           0       -3.224863    3.896821    0.251295
     45          1           0        7.399952   -1.416475    0.006908
     46          1           0       -7.621736   -1.843142   -0.739142
     47          1           0       -7.605747   -1.513592    1.027956
     48          1           0       -7.234659   -3.166664    0.418280
 ---------------------------------------------------------------------
 Rotational constants (GHZ):      0.3402848      0.0835166      0.0677088
 Standard basis: 3-21G (6D, 7F)
 There are   292 symmetry adapted cartesian basis functions of A   symmetry.
 There are   292 symmetry adapted basis functions of A   symmetry.
   292 basis functions,   480 primitive gaussians,   292 cartesian basis functions
   102 alpha electrons      102 beta electrons
       nuclear repulsion energy      2598.8545735069 Hartrees.
 NAtoms=   48 NActive=   48 NUniq=   48 SFac= 1.00D+00 NAtFMM=   60 NAOKFM=F Big=F
 Integral buffers will be    131072 words long.
 Raffenetti 2 integral format.
 Two-electron integral symmetry is turned on.
 One-electron integrals computed using PRISM.
 PrsmSu:  requested number of processors reduced to:   9 ShMem   1 Linda.
 NBasis=   292 RedAO= T EigKep=  2.15D-03  NBF=   292
 NBsUse=   292 1.00D-06 EigRej= -1.00D+00 NBFU=   292
 ExpMin= 1.83D-01 ExpMax= 4.14D+02 ExpMxC= 4.14D+02 IAcc=1 IRadAn=         1 AccDes= 0.00D+00
 Harris functional with IExCor=  402 and IRadAn=       1 diagonalized for initial guess.
 HarFok:  IExCor=  402 AccDes= 0.00D+00 IRadAn=         1 IDoV= 1 UseB2=F ITyADJ=14
 ICtDFT=  3500011 ScaDFX=  1.000000  1.000000  1.000000  1.000000
 FoFCou: FMM=F IPFlag=           0 FMFlag=      100000 FMFlg1=           0
         NFxFlg=           0 DoJE=T BraDBF=F KetDBF=T FulRan=T
         wScrn=  0.000000 ICntrl=     500 IOpCl=  0 I1Cent=   200000004 NGrid=           0
         NMat0=    1 NMatS0=      1 NMatT0=    0 NMatD0=    1 NMtDS0=    0 NMtDT0=    0
 Petite list used in FoFCou.
 Requested convergence on RMS density matrix=1.00D-08 within 128 cycles.
 Requested convergence on MAX density matrix=1.00D-06.
 Requested convergence on             energy=1.00D-06.
 No special actions if energy rises.
 Integral accuracy reduced to 1.0D-05 until final iterations.
 EnCoef did     2 forward-backward iterations
 Initial convergence to 1.0D-05 achieved.  Increase integral accuracy.
 SCF Done:  E(RB3LYP) =  -1364.82116325     A.U. after   17 cycles
            NFock= 17  Conv=0.72D-08     -V/T= 2.0080

 **********************************************************************

            Population analysis using the SCF density.

 **********************************************************************

 Orbital symmetries:
       Occupied  (A) (A) (A) (A) (A) (A) (A) (A) (A) (A) (A) (A)
                 (A) (A) (A) (A) (A) (A) (A) (A) (A) (A) (A) (A)
                 (A) (A) (A) (A) (A) (A) (A) (A) (A) (A) (A) (A)
                 (A) (A) (A) (A) (A) (A) (A) (A) (A) (A) (A) (A)
                 (A) (A) (A) (A) (A) (A) (A) (A) (A) (A) (A) (A)
                 (A) (A) (A) (A) (A) (A) (A) (A) (A) (A) (A) (A)
                 (A) (A) (A) (A) (A) (A) (A) (A) (A) (A) (A) (A)
                 (A) (A) (A) (A) (A) (A) (A) (A) (A) (A) (A) (A)
                 (A) (A) (A) (A) (A) (A)
       Virtual   (A) (A) (A) (A) (A) (A) (A) (A) (A) (A) (A) (A)
                 (A) (A) (A) (A) (A) (A) (A) (A) (A) (A) (A) (A)
                 (A) (A) (A) (A) (A) (A) (A) (A) (A) (A) (A) (A)
                 (A) (A) (A) (A) (A) (A) (A) (A) (A) (A) (A) (A)
                 (A) (A) (A) (A) (A) (A) (A) (A) (A) (A) (A) (A)
                 (A) (A) (A) (A) (A) (A) (A) (A) (A) (A) (A) (A)
                 (A) (A) (A) (A) (A) (A) (A) (A) (A) (A) (A) (A)
                 (A) (A) (A) (A) (A) (A) (A) (A) (A) (A) (A) (A)
                 (A) (A) (A) (A) (A) (A) (A) (A) (A) (A) (A) (A)
                 (A) (A) (A) (A) (A) (A) (A) (A) (A) (A) (A) (A)
                 (A) (A) (A) (A) (A) (A) (A) (A) (A) (A) (A) (A)
                 (A) (A) (A) (A) (A) (A) (A) (A) (A) (A) (A) (A)
                 (A) (A) (A) (A) (A) (A) (A) (A) (A) (A) (A) (A)
                 (A) (A) (A) (A) (A) (A) (A) (A) (A) (A) (A) (A)
                 (A) (A) (A) (A) (A) (A) (A) (A) (A) (A) (A) (A)
                 (A) (A) (A) (A) (A) (A) (A) (A) (A) (A)
 The electronic state is 1-A.
 Alpha  occ. eigenvalues --  -24.58216 -19.08508 -19.06977 -19.01298 -18.99477
 Alpha  occ. eigenvalues --  -14.33974 -14.30479 -14.30303 -14.26621 -14.23516
 Alpha  occ. eigenvalues --  -10.25062 -10.23271 -10.22535 -10.22468 -10.19821
 Alpha  occ. eigenvalues --  -10.19650 -10.19393 -10.18067 -10.17972 -10.17653
 Alpha  occ. eigenvalues --  -10.17429 -10.15680 -10.15374 -10.15303 -10.15034
 Alpha  occ. eigenvalues --  -10.14862 -10.14607 -10.14049  -1.21868  -1.09941
 Alpha  occ. eigenvalues --   -1.09534  -1.03167  -1.01291  -1.00486  -1.00056
 Alpha  occ. eigenvalues --   -0.95125  -0.90137  -0.89328  -0.88711  -0.83356
 Alpha  occ. eigenvalues --   -0.81320  -0.79998  -0.77604  -0.74745  -0.70672
 Alpha  occ. eigenvalues --   -0.69323  -0.68191  -0.66701  -0.65024  -0.62815
 Alpha  occ. eigenvalues --   -0.61593  -0.61076  -0.60823  -0.57445  -0.56976
 Alpha  occ. eigenvalues --   -0.55410  -0.54532  -0.53472  -0.52780  -0.52091
 Alpha  occ. eigenvalues --   -0.51421  -0.50166  -0.48739  -0.48648  -0.47387
 Alpha  occ. eigenvalues --   -0.46777  -0.46669  -0.46281  -0.45272  -0.45111
 Alpha  occ. eigenvalues --   -0.44856  -0.44298  -0.43495  -0.42970  -0.42627
 Alpha  occ. eigenvalues --   -0.42440  -0.41727  -0.41522  -0.40700  -0.39071
 Alpha  occ. eigenvalues --   -0.38898  -0.38362  -0.38052  -0.37602  -0.37348
 Alpha  occ. eigenvalues --   -0.36905  -0.36487  -0.35847  -0.34823  -0.33337
 Alpha  occ. eigenvalues --   -0.32549  -0.30914  -0.29048  -0.28288  -0.28009
 Alpha  occ. eigenvalues --   -0.26971  -0.25946  -0.24687  -0.23054  -0.22238
 Alpha  occ. eigenvalues --   -0.22157  -0.20876
 Alpha virt. eigenvalues --   -0.04779  -0.03447  -0.00963   0.00291   0.04201
 Alpha virt. eigenvalues --    0.07579   0.08359   0.09514   0.10220   0.10377
 Alpha virt. eigenvalues --    0.11159   0.11559   0.12298   0.12441   0.13021
 Alpha virt. eigenvalues --    0.13224   0.13830   0.14418   0.14593   0.16016
 Alpha virt. eigenvalues --    0.16474   0.17021   0.17418   0.17776   0.18138
 Alpha virt. eigenvalues --    0.18461   0.18610   0.19264   0.20221   0.20548
 Alpha virt. eigenvalues --    0.20645   0.21568   0.22962   0.23220   0.23598
 Alpha virt. eigenvalues --    0.24048   0.24856   0.25882   0.26376   0.27529
 Alpha virt. eigenvalues --    0.28556   0.29174   0.29296   0.29773   0.30761
 Alpha virt. eigenvalues --    0.31846   0.35403   0.37249   0.38689   0.40729
 Alpha virt. eigenvalues --    0.41253   0.43970   0.44467   0.45304   0.50675
 Alpha virt. eigenvalues --    0.53782   0.56019   0.58698   0.63294   0.65816
 Alpha virt. eigenvalues --    0.66094   0.66586   0.67030   0.67350   0.67964
 Alpha virt. eigenvalues --    0.69196   0.70091   0.70301   0.70783   0.71005
 Alpha virt. eigenvalues --    0.71384   0.72056   0.72850   0.73010   0.73034
 Alpha virt. eigenvalues --    0.73454   0.74566   0.74842   0.75447   0.76038
 Alpha virt. eigenvalues --    0.76629   0.77269   0.77933   0.78476   0.79232
 Alpha virt. eigenvalues --    0.79936   0.81011   0.81277   0.82745   0.83432
 Alpha virt. eigenvalues --    0.84355   0.84402   0.86119   0.86804   0.87245
 Alpha virt. eigenvalues --    0.90064   0.91979   0.92086   0.94422   0.94789
 Alpha virt. eigenvalues --    0.95496   0.95589   0.97821   0.98318   0.98892
 Alpha virt. eigenvalues --    0.99404   1.00067   1.00362   1.00660   1.00985
 Alpha virt. eigenvalues --    1.01835   1.03024   1.03578   1.04840   1.06487
 Alpha virt. eigenvalues --    1.07632   1.07853   1.08485   1.09406   1.09673
 Alpha virt. eigenvalues --    1.10615   1.13053   1.15008   1.15825   1.18198
 Alpha virt. eigenvalues --    1.19001   1.20556   1.21636   1.24846   1.25811
 Alpha virt. eigenvalues --    1.26255   1.27600   1.28808   1.30839   1.32056
 Alpha virt. eigenvalues --    1.35936   1.37440   1.39048   1.40619   1.42466
 Alpha virt. eigenvalues --    1.42935   1.44457   1.45245   1.47726   1.49479
 Alpha virt. eigenvalues --    1.50454   1.52145   1.55954   1.56628   1.57558
 Alpha virt. eigenvalues --    1.59021   1.61270   1.62372   1.63401   1.64653
 Alpha virt. eigenvalues --    1.65398   1.65962   1.69936   1.71043   1.75373
 Alpha virt. eigenvalues --    1.77275   1.79014   1.83366   1.83706   1.86393
 Alpha virt. eigenvalues --    1.86778   1.87498   1.91370   1.92221   1.92814
 Alpha virt. eigenvalues --    1.95443   2.01586   2.02106   2.04002   2.06114
 Alpha virt. eigenvalues --    2.07316   2.15013   2.22350   2.36045   2.44842
 Alpha virt. eigenvalues --    2.60209   2.71750   2.82897   2.94993   3.07084
 Alpha virt. eigenvalues --    3.12111   3.16366   3.44761   3.59687   4.00612
          Condensed to atoms (all electrons):
               1          2          3          4          5          6
     1  F    9.090014   0.000000   0.000000   0.000000   0.000000   0.000000
     2  O    0.000000   8.075050   0.000000  -0.000729  -0.000001  -0.000025
     3  O    0.000000   0.000000   8.197893   0.000000   0.000000   0.000000
     4  O    0.000000  -0.000729   0.000000   8.235173  -0.065507  -0.000001
     5  O    0.000000  -0.000001   0.000000  -0.065507   8.148275   0.000095
     6  N    0.000000  -0.000025   0.000000  -0.000001   0.000095   7.431434
     7  N   -0.001940   0.000000   0.000054   0.000000   0.000000   0.000001
     8  N    0.000440  -0.000001   0.000000   0.000000   0.000000  -0.060747
     9  N    0.000000   0.000000   0.120271   0.000000   0.000000   0.000000
    10  N    0.000000   0.000000   0.000000   0.000000   0.000000   0.000000
    11  C    0.000000   0.000000   0.000000   0.000000   0.000004   0.243926
    12  C    0.000000   0.000000   0.000000   0.000000  -0.000001  -0.028907
    13  C    0.000000   0.000000   0.000000   0.000000   0.000000  -0.035909
    14  C   -0.000020   0.003097   0.000000  -0.000002   0.000001   0.182205
    15  C   -0.000002   0.000000   0.002422   0.000000   0.000000   0.000000
    16  C   -0.000028   0.000000  -0.000034   0.000000   0.000000  -0.000020
    17  C    0.009331   0.000000   0.004113   0.000000   0.000000   0.000000
    18  C    0.000000   0.003414   0.000000   0.003176   0.003574   0.241022
    19  C    0.000264   0.000000  -0.066244   0.000000   0.000000   0.000000
    20  C   -0.050967  -0.000006   0.000001   0.000000   0.000000   0.003040
    21  C    0.002730  -0.128114   0.000000   0.000108  -0.000016  -0.054563
    22  C    0.000000   0.000000  -0.000004   0.000000   0.000000   0.000000
    23  C    0.000000  -0.114693   0.000000  -0.093093  -0.114055  -0.018222
    24  C   -0.000003   0.646746   0.000000   0.002154   0.001955  -0.030526
    25  C    0.295000   0.000534   0.000000   0.000000   0.000000  -0.000277
    26  C   -0.058217   0.004347   0.000000   0.000000   0.000000   0.004696
    27  C    0.000000  -0.003967   0.000000   0.219591   0.518146   0.004480
    28  C    0.000000   0.000000   0.226386   0.000000   0.000000   0.000000
    29  H    0.000000   0.000000   0.000000   0.000000   0.000000  -0.037585
    30  H    0.000000   0.000000   0.000000   0.000000   0.000000   0.001049
    31  H    0.000000   0.000000   0.000000   0.000000  -0.000011  -0.002854
    32  H    0.000000   0.000000   0.000000   0.000000   0.000000  -0.001279
    33  H    0.000000   0.000000   0.000000   0.000000   0.000000   0.001113
    34  H    0.000000   0.000000   0.000001   0.000000   0.000000   0.000000
    35  H    0.000000   0.000000   0.000000   0.000000   0.000000  -0.000040
    36  H    0.000000   0.000000   0.000000   0.000000   0.000000  -0.000003
    37  H    0.000315   0.000000   0.003680   0.000000   0.000000   0.000000
    38  H    0.005319   0.000000   0.004262   0.000000   0.000000   0.000000
    39  H    0.000000  -0.000002   0.000000   0.000254   0.020914  -0.033732
    40  H    0.000000   0.000000  -0.000011   0.000000   0.000000   0.000000
    41  H    0.000000   0.000000  -0.000071   0.000000   0.000000   0.000000
    42  H   -0.002065   0.012947   0.000000   0.000000   0.000000  -0.000018
    43  H    0.000000   0.000000   0.000000   0.000000   0.000000   0.000000
    44  H    0.000000   0.000000   0.000000   0.000000   0.000000   0.000000
    45  H    0.000000   0.000171   0.000000   0.239151   0.005732   0.000000
    46  H    0.000000   0.000000  -0.033221   0.000000   0.000000   0.000000
    47  H    0.000000   0.000000  -0.033462   0.000000   0.000000   0.000000
    48  H    0.000000   0.000000  -0.023782   0.000000   0.000000   0.000000
               7          8          9         10         11         12
     1  F   -0.001940   0.000440   0.000000   0.000000   0.000000   0.000000
     2  O    0.000000  -0.000001   0.000000   0.000000   0.000000   0.000000
     3  O    0.000054   0.000000   0.120271   0.000000   0.000000   0.000000
     4  O    0.000000   0.000000   0.000000   0.000000   0.000000   0.000000
     5  O    0.000000   0.000000   0.000000   0.000000   0.000004  -0.000001
     6  N    0.000001  -0.060747   0.000000   0.000000   0.243926  -0.028907
     7  N    7.383465  -0.066980   0.001316   0.000014  -0.000022   0.000000
     8  N   -0.066980   7.130385   0.000000   0.000000   0.007521   0.000713
     9  N    0.001316   0.000000   6.907256   0.000028   0.000000   0.000000
    10  N    0.000014   0.000000   0.000028   6.825781   0.000000   0.000000
    11  C   -0.000022   0.007521   0.000000   0.000000   5.357712   0.111862
    12  C    0.000000   0.000713   0.000000   0.000000   0.111862   5.555153
    13  C   -0.000003   0.000892   0.000000   0.000000   0.120496   0.095692
    14  C    0.002852   0.415101   0.000000   0.000000  -0.046343   0.004593
    15  C   -0.046309   0.000595  -0.071987  -0.062480   0.000001   0.000000
    16  C    0.249830   0.001519   0.002894   0.001624  -0.000032   0.000003
    17  C    0.217150   0.001371  -0.064513  -0.000041   0.000000   0.000000
    18  C    0.000000   0.001654   0.000000   0.000000  -0.059804  -0.010262
    19  C   -0.033641  -0.000066   0.449101   0.003252   0.000000   0.000000
    20  C    0.249823   0.382430  -0.000032   0.000001  -0.000043  -0.000003
    21  C   -0.000284  -0.055522   0.000000   0.000000   0.003496  -0.000035
    22  C    0.001807  -0.000001  -0.001767   0.305875   0.000000   0.000000
    23  C    0.000000  -0.000378   0.000000   0.000000   0.002492   0.000564
    24  C    0.000001   0.003249   0.000000   0.000000  -0.000102  -0.000011
    25  C   -0.079507  -0.031719   0.000001   0.000000   0.000037   0.000001
    26  C    0.003414  -0.036159   0.000000   0.000000  -0.000100   0.000000
    27  C    0.000000   0.000000   0.000000   0.000000  -0.000034  -0.000009
    28  C   -0.000001   0.000000  -0.058616   0.000000   0.000000   0.000000
    29  H   -0.000003   0.001956   0.000000   0.000000   0.385220  -0.024677
    30  H    0.000000  -0.000001   0.000000   0.000000  -0.025457   0.378111
    31  H    0.000000  -0.000008   0.000000   0.000000  -0.027430   0.373707
    32  H   -0.000001   0.000069   0.000000   0.000000  -0.025846  -0.026622
    33  H   -0.000001  -0.000013   0.000000   0.000002  -0.025075  -0.025275
    34  H    0.001670  -0.000001  -0.002263  -0.000459   0.000000   0.000000
    35  H   -0.037586   0.008864  -0.000029   0.000638   0.000248  -0.000001
    36  H   -0.045908   0.003380  -0.000025   0.000272  -0.000004   0.000000
    37  H   -0.041429   0.000051  -0.002449   0.000000   0.000000   0.000000
    38  H   -0.034764   0.000003  -0.002773   0.000000   0.000000   0.000000
    39  H    0.000000  -0.000035   0.000000   0.000000  -0.001302   0.002028
    40  H    0.000015   0.000000   0.000504  -0.035043   0.000000   0.000000
    41  H   -0.000039   0.000000   0.010009  -0.032326   0.000000   0.000000
    42  H   -0.000013  -0.000053   0.000000   0.000000   0.000000   0.000000
    43  H    0.000000   0.000000   0.000000   0.323475   0.000000   0.000000
    44  H   -0.000008   0.000000   0.000000   0.321820   0.000000   0.000000
    45  H    0.000000   0.000000   0.000000   0.000000   0.000000   0.000000
    46  H    0.000000   0.000000   0.002058   0.000000   0.000000   0.000000
    47  H    0.000000   0.000000   0.001978   0.000000   0.000000   0.000000
    48  H    0.000000   0.000000   0.003803   0.000000   0.000000   0.000000
              13         14         15         16         17         18
     1  F    0.000000  -0.000020  -0.000002  -0.000028   0.009331   0.000000
     2  O    0.000000   0.003097   0.000000   0.000000   0.000000   0.003414
     3  O    0.000000   0.000000   0.002422  -0.000034   0.004113   0.000000
     4  O    0.000000  -0.000002   0.000000   0.000000   0.000000   0.003176
     5  O    0.000000   0.000001   0.000000   0.000000   0.000000   0.003574
     6  N   -0.035909   0.182205   0.000000  -0.000020   0.000000   0.241022
     7  N   -0.000003   0.002852  -0.046309   0.249830   0.217150   0.000000
     8  N    0.000892   0.415101   0.000595   0.001519   0.001371   0.001654
     9  N    0.000000   0.000000  -0.071987   0.002894  -0.064513   0.000000
    10  N    0.000000   0.000000  -0.062480   0.001624  -0.000041   0.000000
    11  C    0.120496  -0.046343   0.000001  -0.000032   0.000000  -0.059804
    12  C    0.095692   0.004593   0.000000   0.000003   0.000000  -0.010262
    13  C    5.503494  -0.004429   0.000002   0.000015   0.000000   0.003917
    14  C   -0.004429   4.867077  -0.000004   0.000183  -0.000079  -0.071627
    15  C    0.000002  -0.000004   5.883769   0.217120  -0.102249   0.000000
    16  C    0.000015   0.000183   0.217120   5.230987  -0.066605   0.000000
    17  C    0.000000  -0.000079  -0.102249  -0.066605   5.360390   0.000000
    18  C    0.003917  -0.071627   0.000000   0.000000   0.000000   5.132518
    19  C    0.000000   0.000002   0.166174  -0.080840   0.144189   0.000000
    20  C   -0.000049  -0.083470   0.005196  -0.056687  -0.049476  -0.000047
    21  C    0.000134   0.189718   0.000001   0.000045  -0.000021  -0.010614
    22  C    0.000000   0.000000   0.182240  -0.054532   0.003375   0.000000
    23  C   -0.000203  -0.024671   0.000000   0.000000   0.000000   0.302168
    24  C    0.000005   0.026325   0.000000   0.000000   0.000000  -0.025341
    25  C   -0.000004  -0.029837  -0.000119   0.002082   0.001718  -0.000022
    26  C    0.000001  -0.098025  -0.000001  -0.000138   0.000524  -0.001059
    27  C    0.000001  -0.000513   0.000000   0.000000   0.000000  -0.093260
    28  C    0.000000   0.000000  -0.000177   0.000002  -0.000207   0.000000
    29  H   -0.033926   0.000347   0.000000  -0.000002   0.000000   0.000905
    30  H   -0.023176  -0.000037   0.000000   0.000000   0.000000   0.000104
    31  H   -0.022704  -0.000109   0.000000   0.000000   0.000000   0.003355
    32  H    0.378890   0.001322   0.000000  -0.000003   0.000000   0.000220
    33  H    0.376172   0.000053  -0.000001   0.000080   0.000000  -0.000023
    34  H    0.000000   0.000000   0.369557  -0.044486   0.004170   0.000000
    35  H    0.000038  -0.000036  -0.028097   0.364020   0.002551   0.000000
    36  H    0.000309  -0.000065  -0.056217   0.363093   0.002542   0.000000
    37  H    0.000000   0.000002   0.003487   0.002020   0.360817   0.000000
    38  H    0.000000   0.000003   0.002114   0.002515   0.363168   0.000000
    39  H   -0.000215   0.002679   0.000000   0.000000   0.000000   0.363419
    40  H    0.000000   0.000000  -0.068165  -0.003186   0.000122   0.000000
    41  H    0.000000   0.000000  -0.062976   0.004136   0.000244   0.000000
    42  H    0.000000   0.003321   0.000000   0.000000   0.000000  -0.000048
    43  H    0.000000   0.000000  -0.000991  -0.000407   0.000001   0.000000
    44  H    0.000002   0.000000  -0.003363   0.004060  -0.000001   0.000000
    45  H    0.000000   0.000000   0.000000   0.000000   0.000000  -0.000305
    46  H    0.000000   0.000000   0.000008   0.000000   0.000060   0.000000
    47  H    0.000000   0.000000  -0.000015   0.000000   0.000058   0.000000
    48  H    0.000000   0.000000   0.000000   0.000000   0.000022   0.000000
              19         20         21         22         23         24
     1  F    0.000264  -0.050967   0.002730   0.000000   0.000000  -0.000003
     2  O    0.000000  -0.000006  -0.128114   0.000000  -0.114693   0.646746
     3  O   -0.066244   0.000001   0.000000  -0.000004   0.000000   0.000000
     4  O    0.000000   0.000000   0.000108   0.000000  -0.093093   0.002154
     5  O    0.000000   0.000000  -0.000016   0.000000  -0.114055   0.001955
     6  N    0.000000   0.003040  -0.054563   0.000000  -0.018222  -0.030526
     7  N   -0.033641   0.249823  -0.000284   0.001807   0.000000   0.000001
     8  N   -0.000066   0.382430  -0.055522  -0.000001  -0.000378   0.003249
     9  N    0.449101  -0.000032   0.000000  -0.001767   0.000000   0.000000
    10  N    0.003252   0.000001   0.000000   0.305875   0.000000   0.000000
    11  C    0.000000  -0.000043   0.003496   0.000000   0.002492  -0.000102
    12  C    0.000000  -0.000003  -0.000035   0.000000   0.000564  -0.000011
    13  C    0.000000  -0.000049   0.000134   0.000000  -0.000203   0.000005
    14  C    0.000002  -0.083470   0.189718   0.000000  -0.024671   0.026325
    15  C    0.166174   0.005196   0.000001   0.182240   0.000000   0.000000
    16  C   -0.080840  -0.056687   0.000045  -0.054532   0.000000   0.000000
    17  C    0.144189  -0.049476  -0.000021   0.003375   0.000000   0.000000
    18  C    0.000000  -0.000047  -0.010614   0.000000   0.302168  -0.025341
    19  C    5.239961   0.002310   0.000000  -0.045027   0.000000   0.000000
    20  C    0.002310   4.974742  -0.012963  -0.000051  -0.000039  -0.000004
    21  C    0.000000  -0.012963   6.262454   0.000000  -0.172575  -0.067810
    22  C   -0.045027  -0.000051   0.000000   5.202923   0.000000   0.000000
    23  C    0.000000  -0.000039  -0.172575   0.000000   6.467215  -0.070376
    24  C    0.000000  -0.000004  -0.067810   0.000000  -0.070376   5.227104
    25  C    0.000582   0.123071  -0.023358   0.000001   0.000045   0.008796
    26  C    0.000009  -0.127272   0.212471   0.000000   0.014747  -0.071768
    27  C    0.000000   0.000000   0.005772   0.000000   0.066584  -0.037733
    28  C    0.004562   0.000000   0.000000   0.000001   0.000000   0.000000
    29  H    0.000000  -0.000023   0.000049   0.000000  -0.000027   0.000005
    30  H    0.000000   0.000000   0.000000   0.000000  -0.000003   0.000000
    31  H    0.000000   0.000000  -0.000005   0.000000   0.000000  -0.000001
    32  H    0.000000   0.000008  -0.000049   0.000000  -0.000004  -0.000001
    33  H    0.000000   0.000002  -0.000001  -0.000001   0.000001   0.000000
    34  H   -0.042714  -0.000079   0.000000  -0.037075   0.000000   0.000000
    35  H    0.003829  -0.001064   0.000016   0.000984   0.000000   0.000000
    36  H    0.001305  -0.001229  -0.000005   0.000218   0.000000   0.000000
    37  H   -0.050994  -0.000820  -0.000004  -0.000016   0.000000   0.000000
    38  H   -0.041309  -0.001661  -0.000005  -0.000032   0.000000   0.000000
    39  H    0.000000   0.000001  -0.000465   0.000000  -0.055539   0.002744
    40  H    0.003840  -0.000004   0.000000   0.372562   0.000000   0.000000
    41  H   -0.001114   0.000001   0.000000   0.369181   0.000000   0.000000
    42  H    0.000000   0.004012  -0.051997   0.000000   0.001103   0.002144
    43  H    0.000049   0.000000   0.000000  -0.053300   0.000000   0.000000
    44  H    0.000011   0.000002   0.000000  -0.050643   0.000000   0.000000
    45  H    0.000000   0.000000   0.000005   0.000000   0.012740  -0.000095
    46  H    0.000401   0.000000   0.000000  -0.000001   0.000000   0.000000
    47  H    0.000359   0.000000   0.000000  -0.000001   0.000000   0.000000
    48  H   -0.000298   0.000000   0.000000   0.000000   0.000000   0.000000
              25         26         27         28         29         30
     1  F    0.295000  -0.058217   0.000000   0.000000   0.000000   0.000000
     2  O    0.000534   0.004347  -0.003967   0.000000   0.000000   0.000000
     3  O    0.000000   0.000000   0.000000   0.226386   0.000000   0.000000
     4  O    0.000000   0.000000   0.219591   0.000000   0.000000   0.000000
     5  O    0.000000   0.000000   0.518146   0.000000   0.000000   0.000000
     6  N   -0.000277   0.004696   0.004480   0.000000  -0.037585   0.001049
     7  N   -0.079507   0.003414   0.000000  -0.000001  -0.000003   0.000000
     8  N   -0.031719  -0.036159   0.000000   0.000000   0.001956  -0.000001
     9  N    0.000001   0.000000   0.000000  -0.058616   0.000000   0.000000
    10  N    0.000000   0.000000   0.000000   0.000000   0.000000   0.000000
    11  C    0.000037  -0.000100  -0.000034   0.000000   0.385220  -0.025457
    12  C    0.000001   0.000000  -0.000009   0.000000  -0.024677   0.378111
    13  C   -0.000004   0.000001   0.000001   0.000000  -0.033926  -0.023176
    14  C   -0.029837  -0.098025  -0.000513   0.000000   0.000347  -0.000037
    15  C   -0.000119  -0.000001   0.000000  -0.000177   0.000000   0.000000
    16  C    0.002082  -0.000138   0.000000   0.000002  -0.000002   0.000000
    17  C    0.001718   0.000524   0.000000  -0.000207   0.000000   0.000000
    18  C   -0.000022  -0.001059  -0.093260   0.000000   0.000905   0.000104
[...]
    17  C    0.001640   0.000583   0.000000  -0.000135   0.000000   0.000000
    18  C   -0.000022  -0.001023  -0.096287   0.000000   0.000898   0.000097
    19  C    0.000570   0.000009   0.000000   0.003267   0.000000   0.000000
    20  C    0.124422  -0.129101   0.000000   0.000000  -0.000021   0.000000
    21  C   -0.025294   0.229165   0.005914   0.000000   0.000035   0.000000
    22  C    0.000001   0.000000   0.000000  -0.000001   0.000000   0.000000
    23  C    0.000040   0.015137   0.063491   0.000000  -0.000038  -0.000003
    24  C    0.008793  -0.072422  -0.037609   0.000000   0.000003   0.000000
    25  C    5.332695   0.198424   0.000000   0.000000   0.000001   0.000000
    26  C    0.198424   5.717571  -0.000004   0.000000  -0.000001   0.000000
    27  C    0.000000  -0.000004   4.688031   0.000000   0.000001   0.000000
    28  C    0.000000   0.000000   0.000000   5.097111   0.000000   0.000000
    29  H    0.000001  -0.000001   0.000001   0.000000   0.474753  -0.002307
    30  H    0.000000   0.000000   0.000000   0.000000  -0.002307   0.470982
    31  H    0.000000   0.000000  -0.000001   0.000000   0.001317  -0.017524
    32  H    0.000001   0.000001   0.000000   0.000000   0.001538   0.001338
    33  H    0.000000   0.000000   0.000000   0.000000  -0.001921  -0.003054
    34  H    0.000001   0.000000   0.000000   0.000002   0.000000   0.000000
    35  H    0.000338  -0.000006   0.000000   0.000000   0.000332   0.000000
    36  H    0.000039   0.000004   0.000000   0.000000  -0.000009   0.000000
    37  H    0.000719  -0.000001   0.000000  -0.000108   0.000000   0.000000
    38  H    0.000423   0.000057   0.000000  -0.000051   0.000000   0.000000
    39  H    0.000000   0.000001   0.000640   0.000000   0.000080  -0.000011
    40  H    0.000000   0.000000   0.000000  -0.000002   0.000000   0.000000
    41  H    0.000000   0.000000   0.000000   0.000000   0.000000   0.000000
    42  H   -0.034153   0.369649   0.000003   0.000000   0.000000   0.000000
    43  H    0.000000   0.000000   0.000000   0.000000   0.000000   0.000000
    44  H    0.000000   0.000000   0.000000   0.000000   0.000000   0.000000
    45  H    0.000000   0.000000  -0.028694   0.000000   0.000000   0.000000
    46  H    0.000000   0.000000   0.000000   0.333721   0.000000   0.000000
    47  H    0.000000   0.000000   0.000000   0.333180   0.000000   0.000000
    48  H    0.000000   0.000000   0.000000   0.354406   0.000000   0.000000
              31         32         33         34         35         36
     1  F    0.000000   0.000000   0.000000   0.000000  -0.000001   0.000000
     2  O    0.000000   0.000000   0.000000   0.000000   0.000000   0.000000
     3  O    0.000000   0.000000   0.000000  -0.000005   0.000000   0.000000
     4  O    0.000000   0.000000   0.000000   0.000000   0.000000   0.000000
     5  O   -0.000011   0.000000   0.000000   0.000000   0.000000   0.000000
     6  N   -0.002758  -0.001145   0.001151   0.000000  -0.000054   0.000000
     7  N    0.000000  -0.000001  -0.000001   0.001904  -0.036230  -0.042636
     8  N   -0.000008   0.000061  -0.000018   0.000000   0.011833   0.001707
     9  N    0.000000   0.000000   0.000000  -0.001337  -0.000026   0.000000
    10  N    0.000000   0.000000   0.000000  -0.000388   0.001273   0.000063
    11  C   -0.026345  -0.026576  -0.024969   0.000000   0.000297  -0.000005
    12  C    0.373773  -0.025928  -0.024858   0.000000   0.000000   0.000000
    13  C   -0.022250   0.379061   0.376318   0.000000   0.000037   0.000127
    14  C   -0.000110   0.001515   0.000060   0.000000  -0.000054  -0.000033
    15  C    0.000000   0.000000  -0.000001   0.369603  -0.026164  -0.055436
    16  C    0.000000  -0.000001   0.000064  -0.045234   0.360908   0.362861
    17  C    0.000000   0.000000   0.000000   0.003556   0.002185   0.002750
    18  C    0.003448   0.000246  -0.000019   0.000000   0.000000   0.000000
    19  C    0.000000   0.000000   0.000000  -0.045218   0.004240  -0.000321
    20  C    0.000000   0.000011   0.000002  -0.000067  -0.000432  -0.000944
    21  C   -0.000006  -0.000066  -0.000001   0.000000   0.000025  -0.000002
    22  C    0.000000   0.000000   0.000000  -0.033589   0.000461   0.001578
    23  C    0.000002  -0.000005   0.000001   0.000000   0.000000   0.000000
    24  C   -0.000001  -0.000001   0.000000   0.000000   0.000000   0.000000
    25  C    0.000000   0.000001   0.000000   0.000001   0.000338   0.000039
    26  C    0.000000   0.000001   0.000000   0.000000  -0.000006   0.000004
    27  C   -0.000001   0.000000   0.000000   0.000000   0.000000   0.000000
    28  C    0.000000   0.000000   0.000000   0.000002   0.000000   0.000000
    29  H    0.001317   0.001538  -0.001921   0.000000   0.000332  -0.000009
    30  H   -0.017524   0.001338  -0.003054   0.000000   0.000000   0.000000
    31  H    0.462672  -0.003439   0.001275   0.000000   0.000000   0.000000
    32  H   -0.003439   0.462540  -0.016878   0.000000  -0.000008   0.000015
    33  H    0.001275  -0.016878   0.485321   0.000000   0.000081   0.000094
    34  H    0.000000   0.000000   0.000000   0.522114  -0.003839   0.003454
    35  H    0.000000  -0.000008   0.000081  -0.003839   0.493824  -0.036327
    36  H    0.000000   0.000015   0.000094   0.003454  -0.036327   0.550488
    37  H    0.000000   0.000000   0.000000  -0.000025  -0.000131   0.000785
    38  H    0.000000   0.000000   0.000000  -0.000028   0.000040  -0.000178
    39  H    0.001949   0.000024   0.000002   0.000000   0.000000   0.000000
    40  H    0.000000   0.000000   0.000000   0.003762   0.000012   0.005275
    41  H    0.000000   0.000000   0.000000  -0.002040  -0.000052   0.000080
    42  H    0.000000   0.000000   0.000000   0.000000   0.000000   0.000000
    43  H    0.000000   0.000000   0.000000   0.003144   0.000127   0.000050
    44  H    0.000000   0.000000   0.000021  -0.000157   0.000162   0.000729
    45  H    0.000000   0.000000   0.000000   0.000000   0.000000   0.000000
    46  H    0.000000   0.000000   0.000000  -0.000002   0.000000   0.000000
    47  H    0.000000   0.000000   0.000000   0.000001   0.000000   0.000000
    48  H    0.000000   0.000000   0.000000   0.000000   0.000000   0.000000
              37         38         39         40         41         42
     1  F    0.000690   0.005694   0.000000   0.000000   0.000000  -0.001801
     2  O    0.000000   0.000000  -0.000001   0.000000   0.000000   0.014865
     3  O    0.008657   0.002291   0.000000  -0.000012  -0.000035   0.000000
     4  O    0.000000   0.000000   0.000284   0.000000   0.000000   0.000000
     5  O    0.000000   0.000000   0.022675   0.000000   0.000000   0.000000
     6  N    0.000000   0.000000  -0.032641   0.000000   0.000000  -0.000018
     7  N   -0.037787  -0.034698   0.000000  -0.000004  -0.000033  -0.000015
     8  N    0.000032   0.000008  -0.000033   0.000000   0.000000  -0.000050
     9  N   -0.004112  -0.001251   0.000000   0.000971   0.007790   0.000000
    10  N    0.000000   0.000000   0.000000  -0.033118  -0.031066   0.000000
    11  C    0.000000   0.000000  -0.000910   0.000000   0.000000   0.000001
    12  C    0.000000   0.000000   0.002129   0.000000   0.000000   0.000000
    13  C    0.000000   0.000000  -0.000254   0.000000   0.000000   0.000000
    14  C    0.000002   0.000003   0.002676   0.000000   0.000000   0.003395
    15  C    0.003687   0.001614   0.000000  -0.066556  -0.061382   0.000000
    16  C    0.001744   0.002520   0.000000  -0.003159   0.003855   0.000000
    17  C    0.360999   0.362519   0.000000   0.000011   0.000143   0.000000
    18  C    0.000000   0.000000   0.362884   0.000000   0.000000  -0.000052
    19  C   -0.050845  -0.038858   0.000000   0.003499  -0.000557   0.000000
    20  C   -0.000545  -0.001599   0.000001  -0.000001   0.000001   0.004139
    21  C   -0.000003  -0.000005  -0.000514   0.000000   0.000000  -0.053919
    22  C   -0.000006  -0.000040   0.000000   0.373844   0.373022   0.000000
    23  C    0.000000   0.000000  -0.059639   0.000000   0.000000   0.001267
    24  C    0.000000   0.000000   0.002911   0.000000   0.000000   0.002192
    25  C    0.000719   0.000423   0.000000   0.000000   0.000000  -0.034153
    26  C   -0.000001   0.000057   0.000001   0.000000   0.000000   0.369649
    27  C    0.000000   0.000000   0.000640   0.000000   0.000000   0.000003
    28  C   -0.000108  -0.000051   0.000000  -0.000002   0.000000   0.000000
    29  H    0.000000   0.000000   0.000080   0.000000   0.000000   0.000000
    30  H    0.000000   0.000000  -0.000011   0.000000   0.000000   0.000000
    31  H    0.000000   0.000000   0.001949   0.000000   0.000000   0.000000
    32  H    0.000000   0.000000   0.000024   0.000000   0.000000   0.000000
    33  H    0.000000   0.000000   0.000002   0.000000   0.000000   0.000000
    34  H   -0.000025  -0.000028   0.000000   0.003762  -0.002040   0.000000
    35  H   -0.000131   0.000040   0.000000   0.000012  -0.000052   0.000000
    36  H    0.000785  -0.000178   0.000000   0.005275   0.000080   0.000000
    37  H    0.505085  -0.034957   0.000000   0.000017   0.000004   0.000000
    38  H   -0.034957   0.483188   0.000000   0.000000  -0.000002   0.000001
    39  H    0.000000   0.000000   0.433319   0.000000   0.000000   0.000000
    40  H    0.000017   0.000000   0.000000   0.532048  -0.023720   0.000000
    41  H    0.000004  -0.000002   0.000000  -0.023720   0.506872   0.000000
    42  H    0.000000   0.000001   0.000000   0.000000   0.000000   0.446295
    43  H    0.000000   0.000000   0.000000   0.004318  -0.003279   0.000000
    44  H    0.000000   0.000000   0.000000  -0.003670   0.003949   0.000000
    45  H    0.000000   0.000000  -0.000015   0.000000   0.000000   0.000000
    46  H    0.000026  -0.000016   0.000000  -0.000001   0.000010   0.000000
    47  H   -0.000057   0.000008   0.000000   0.000007   0.000005   0.000000
    48  H    0.000004   0.000000   0.000000   0.000000   0.000000   0.000000
              43         44         45         46         47         48
     1  F    0.000000   0.000000   0.000000   0.000000   0.000000   0.000000
     2  O    0.000000   0.000000   0.000202   0.000000   0.000000   0.000000
     3  O    0.000000   0.000000   0.000000  -0.030279  -0.030520  -0.023168
     4  O    0.000000   0.000000   0.237112   0.000000   0.000000   0.000000
     5  O    0.000000   0.000000   0.004436   0.000000   0.000000   0.000000
     6  N    0.000000   0.000000   0.000000   0.000000   0.000000   0.000000
     7  N   -0.000001  -0.000006   0.000000   0.000000   0.000000   0.000000
     8  N    0.000000   0.000000   0.000000   0.000000   0.000000   0.000000
     9  N    0.000000   0.000000   0.000000   0.001260   0.000709   0.003242
    10  N    0.327241   0.326281   0.000000   0.000000   0.000000   0.000000
    11  C    0.000000   0.000000   0.000000   0.000000   0.000000   0.000000
    12  C    0.000000   0.000000   0.000000   0.000000   0.000000   0.000000
    13  C    0.000000   0.000000   0.000000   0.000000   0.000000   0.000000
    14  C    0.000000   0.000000   0.000000   0.000000   0.000000   0.000000
    15  C   -0.000553  -0.002501   0.000000   0.000003  -0.000015   0.000001
    16  C   -0.000338   0.003825   0.000000   0.000000   0.000000   0.000000
    17  C    0.000001   0.000000   0.000000   0.000055   0.000065   0.000013
    18  C    0.000000   0.000000  -0.000290   0.000000   0.000000   0.000000
    19  C    0.000030   0.000000   0.000000   0.000287   0.000377  -0.000258
    20  C    0.000000   0.000002   0.000000   0.000000   0.000000   0.000000
    21  C    0.000000   0.000000   0.000005   0.000000   0.000000   0.000000
    22  C   -0.050380  -0.048901   0.000000  -0.000001   0.000002   0.000000
    23  C    0.000000   0.000000   0.011852   0.000000   0.000000   0.000000
    24  C    0.000000   0.000000  -0.000066   0.000000   0.000000   0.000000
    25  C    0.000000   0.000000   0.000000   0.000000   0.000000   0.000000
    26  C    0.000000   0.000000   0.000000   0.000000   0.000000   0.000000
    27  C    0.000000   0.000000  -0.028694   0.000000   0.000000   0.000000
    28  C    0.000000   0.000000   0.000000   0.333721   0.333180   0.354406
    29  H    0.000000   0.000000   0.000000   0.000000   0.000000   0.000000
    30  H    0.000000   0.000000   0.000000   0.000000   0.000000   0.000000
    31  H    0.000000   0.000000   0.000000   0.000000   0.000000   0.000000
    32  H    0.000000   0.000000   0.000000   0.000000   0.000000   0.000000
    33  H    0.000000   0.000021   0.000000   0.000000   0.000000   0.000000
    34  H    0.003144  -0.000157   0.000000  -0.000002   0.000001   0.000000
    35  H    0.000127   0.000162   0.000000   0.000000   0.000000   0.000000
    36  H    0.000050   0.000729   0.000000   0.000000   0.000000   0.000000
    37  H    0.000000   0.000000   0.000000   0.000026  -0.000057   0.000004
    38  H    0.000000   0.000000   0.000000  -0.000016   0.000008   0.000000
    39  H    0.000000   0.000000  -0.000015   0.000000   0.000000   0.000000
    40  H    0.004318  -0.003670   0.000000  -0.000001   0.000007   0.000000
    41  H   -0.003279   0.003949   0.000000   0.000010   0.000005   0.000000
    42  H    0.000000   0.000000   0.000000   0.000000   0.000000   0.000000
    43  H    0.489994  -0.036204   0.000000   0.000000   0.000000   0.000000
    44  H   -0.036204   0.491744   0.000000   0.000000   0.000000   0.000000
    45  H    0.000000   0.000000   0.415871   0.000000   0.000000   0.000000
    46  H    0.000000   0.000000   0.000000   0.565279  -0.042285  -0.027764
    47  H    0.000000   0.000000   0.000000  -0.042285   0.571183  -0.029391
    48  H    0.000000   0.000000   0.000000  -0.027764  -0.029391   0.517006
 Mulliken charges:
               1
     1  F   -0.287325
     2  O   -0.499232
     3  O   -0.383477
     4  O   -0.540183
     5  O   -0.518276
     6  N   -0.805492
     7  N   -0.718015
     8  N   -0.709783
     9  N   -0.316617
    10  N   -0.659268
    11  C   -0.027162
    12  C   -0.408928
    13  C   -0.361774
    14  C    0.657479
    15  C   -0.321789
    16  C   -0.149319
    17  C   -0.192174
    18  C    0.212243
    19  C    0.339806
    20  C    0.645630
    21  C   -0.101029
    22  C   -0.201071
    23  C   -0.204243
    24  C    0.386573
    25  C    0.240230
    26  C   -0.148839
    27  C    0.663522
    28  C   -0.299873
    29  H    0.230235
    30  H    0.220274
    31  H    0.228017
    32  H    0.227696
    33  H    0.207331
    34  H    0.224388
    35  H    0.227148
    36  H    0.205793
    37  H    0.246125
    38  H    0.253315
    39  H    0.264444
    40  H    0.206477
    41  H    0.226435
    42  H    0.248200
    43  H    0.265849
    44  H    0.264725
    45  H    0.359587
    46  H    0.199708
    47  H    0.196731
    48  H    0.205908
 Sum of Mulliken charges =   0.00000
 Mulliken charges with hydrogens summed into heavy atoms:
               1
     1  F   -0.287325
     2  O   -0.499232
     3  O   -0.383477
     4  O   -0.180596
     5  O   -0.518276
     6  N   -0.805492
     7  N   -0.718015
     8  N   -0.709783
     9  N   -0.316617
    10  N   -0.128694
    11  C    0.203073
    12  C    0.039363
    13  C    0.073254
    14  C    0.657479
    15  C   -0.097401
    16  C    0.283622
    17  C    0.307267
    18  C    0.476686
    19  C    0.339806
    20  C    0.645630
    21  C   -0.101029
    22  C    0.231840
    23  C   -0.204243
    24  C    0.386573
    25  C    0.240230
    26  C    0.099361
    27  C    0.663522
    28  C    0.302474
 Electronic spatial extent (au):  <R**2>=          14704.7864
 Charge=              0.0000 electrons
 Dipole moment (field-independent basis, Debye):
    X=             -4.3267    Y=              4.0116    Z=             -0.3845  Tot=              5.9128
 Quadrupole moment (field-independent basis, Debye-Ang):
   XX=           -169.2991   YY=           -163.4800   ZZ=           -156.8911
   XY=             18.3375   XZ=              1.9160   YZ=             -4.1713
 Traceless Quadrupole moment (field-independent basis, Debye-Ang):
   XX=             -6.0757   YY=             -0.2566   ZZ=              6.3323
   XY=             18.3375   XZ=              1.9160   YZ=             -4.1713
 Octapole moment (field-independent basis, Debye-Ang**2):
  XXX=           -102.4810  YYY=              6.2173  ZZZ=             -2.9581  XYY=            -11.2548
  XXY=           -108.9160  XXZ=             13.1806  XZZ=            -15.4884  YZZ=             -1.4937
  YYZ=            -13.6321  XYZ=             25.1434
 Hexadecapole moment (field-independent basis, Debye-Ang**3):
 XXXX=         -13522.8269 YYYY=          -3771.1867 ZZZZ=           -312.1765 XXXY=            275.1655
 XXXZ=           -103.6583 YYYX=            416.1715 YYYZ=            -87.9394 ZZZX=              5.7429
 ZZZY=            -27.1801 XXYY=          -3266.1146 XXZZ=          -2403.6170 YYZZ=           -641.3341
 XXYZ=           -101.7192 YYXZ=             23.0008 ZZXY=            -33.1561
 N-N= 2.596194974238D+03 E-N=-8.377005051782D+03  KE= 1.353692530883D+03
 1\1\GINC-NODE036\FOpt\RB3LYP\3-21G\C18H20F1N5O4\SUPERCOMPUTO1\06-Jul-2
 020\0\\# opt b3lyp/3-21g geom=connectivity\\Title Card Required\\0,1\F
 ,10.5702591253,5.3660685311,-9.2220544676\O,5.5239830389,5.6231714214,
 -9.2316260319\O,15.0481846589,6.3813043157,-9.6917914373\O,3.048145532
 6,6.766176488,-9.1361463497\O,2.9094084301,9.0435640014,-9.1023549648\
 N,6.9683673482,9.5158772901,-9.1992268518\N,11.390660582,8.0826347781,
 -9.1544557472\N,9.1736068905,8.7303079584,-9.1900592909\N,14.959285403
 4,7.8140938494,-9.3068671703\N,13.7233135382,11.9828216807,-8.91151216
 14\C,7.4871472501,10.8795048998,-9.1875022746\C,6.7270309315,11.959795
 0025,-9.941509665\C,8.0659725901,11.4497521856,-10.4661045746\C,7.8656
 576361,8.4359236644,-9.2052508053\C,13.2680327133,9.4820614338,-8.6940
 07784\C,11.7979165514,9.5086598888,-9.1768844577\C,12.5491836423,7.163
 5246304,-9.2588053869\C,5.6325013076,9.2588988266,-9.1628405859\C,13.7
 275673597,8.0954117562,-9.1052444747\C,10.0785700898,7.7300288401,-9.1
 89140935\C,7.3544803846,7.1334607974,-9.2173256424\C,14.1350276067,10.
 6203869795,-9.2865879968\C,5.0735804688,8.0102567681,-9.1704777415\C,5
 .9112240935,6.808087369,-9.2113113432\C,9.6322773666,6.3772352383,-9.2
 135423669\C,8.2974282504,6.0920270095,-9.2268806988\C,3.6038147602,8.0
 196835697,-9.1334644019\C,16.4507969614,6.1117539999,-10.019212805\H,7
 .9717905159,11.15022086,-8.2576973354\H,6.6865499019,12.9399824999,-9.
 4831316603\H,5.8423502741,11.6734849862,-10.4960381721\H,8.0388241253,
 10.8076434518,-11.3367920425\H,8.9386314589,12.0842894812,-10.37770393
 45\H,13.2864036176,9.5440308516,-7.5961936068\H,11.1343180718,10.08880
 13833,-8.5371346026\H,11.7372543261,9.9075050025,-10.2003666053\H,12.5
 974227046,6.6443249359,-10.2218549064\H,12.5396650248,6.4036648309,-8.
 4738706544\H,4.9698561144,10.1131791749,-9.1258184066\H,14.1097377134,
 10.5398374162,-10.3790441657\H,15.1719870445,10.4642224985,-8.97631607
 4\H,7.9323703455,5.0732862315,-9.2406669634\H,13.7919511817,12.1627700
 251,-7.907595121\H,12.7994913145,12.2396450818,-9.2644939108\H,2.05789
 01083,6.8819568221,-9.1090246501\H,17.1015137339,6.3127586695,-9.16325
 85093\H,16.7818311821,6.7055424961,-10.8767225507\H,16.4747367287,5.04
 8380127,-10.268087715\\Version=ES64L-G09RevD.01\State=1-A\HF=-1364.828
 8656\RMSD=6.483e-09\RMSF=7.316e-06\Dipole=1.7186278,1.5640268,0.107998
 5\Quadrupole=-4.7368981,0.1614122,4.5754859,-13.5287224,1.7644912,3.31
 37453\PG=C01 [X(C18H20F1N5O4)]\\@


 AND ALL THIS SCIENCE I DON'T UNDERSTAND
 IT'S JUST MY JOB FIVE DAYS A WEEK

                           -- ELTON JOHN, "ROCKET MAN"
 Job cpu time:       0 days  1 hours 37 minutes  4.2 seconds.
 File lengths (MBytes):  RWF=     56 Int=      0 D2E=      0 Chk=      8 Scr=      1
 Normal termination of Gaussian 09 at Mon Jul  6 12:18:33 2020.
