 Entering Gaussian System, Link 0=g09
 Input=furazolidona.gjf
 Output=furazolidona.log
 Initial command:
 /usr/local/cluster_programs/g09/l1.exe "/tmp/scratch/64174.prometeo/Gau-29994.inp" -scrdir="/tmp/scratch/64174.prometeo/"
 Entering Link 1 = /usr/local/cluster_programs/g09/l1.exe PID=     29995.
  
 Copyright (c) 1988,1990,1992,1993,1995,1998,2003,2009,2013,
            Gaussian, Inc.  All Rights Reserved.
  
 This is part of the Gaussian(R) 09 program.  It is based on
 the Gaussian(R) 03 system (copyright 2003, Gaussian, Inc.),
 the Gaussian(R) 98 system (copyright 1998, Gaussian, Inc.),
 the Gaussian(R) 94 system (copyright 1995, Gaussian, Inc.),
 the Gaussian 92(TM) system (copyright 1992, Gaussian, Inc.),
 the Gaussian 90(TM) system (copyright 1990, Gaussian, Inc.),
 the Gaussian 88(TM) system (copyright 1988, Gaussian, Inc.),
 the Gaussian 86(TM) system (copyright 1986, Carnegie Mellon
 University), and the Gaussian 82(TM) system (copyright 1983,
 Carnegie Mellon University). Gaussian is a federally registered
 trademark of Gaussian, Inc.
  
 This software contains proprietary and confidential information,
 including trade secrets, belonging to Gaussian, Inc.
  
 This software is provided under written license and may be
 used, copied, transmitted, or stored only in accord with that
 written license.
  
 The following legend is applicable only to US Government
 contracts under FAR:
  
                    RESTRICTED RIGHTS LEGEND
  
 Use, reproduction and disclosure by the US Government is
 subject to restrictions as set forth in subparagraphs (a)
 and (c) of the Commercial Computer Software - Restricted
 Rights clause in FAR 52.227-19.
  
 Gaussian, Inc.
 340 Quinnipiac St., Bldg. 40, Wallingford CT 06492
  
  
 ---------------------------------------------------------------
 Warning -- This program may not be used in any manner that
 competes with the business of Gaussian, Inc. or will provide
 assistance to any competitor of Gaussian, Inc.  The licensee
 of this program is prohibited from giving any competitor of
 Gaussian, Inc. access to this program.  By using this program,
 the user acknowledges that Gaussian, Inc. is engaged in the
 business of creating and licensing software in the field of
 computational chemistry and represents and warrants to the
 licensee that it is not a competitor of Gaussian, Inc. and that
 it will not use this program in any manner prohibited above.
 ---------------------------------------------------------------
  

 Cite this work as:
 Gaussian 09, Revision D.01,
 M. J. Frisch, G. W. Trucks, H. B. Schlegel, G. E. Scuseria, 
 M. A. Robb, J. R. Cheeseman, G. Scalmani, V. Barone, B. Mennucci, 
 G. A. Petersson, H. Nakatsuji, M. Caricato, X. Li, H. P. Hratchian, 
 A. F. Izmaylov, J. Bloino, G. Zheng, J. L. Sonnenberg, M. Hada, 
 M. Ehara, K. Toyota, R. Fukuda, J. Hasegawa, M. Ishida, T. Nakajima, 
 Y. Honda, O. Kitao, H. Nakai, T. Vreven, J. A. Montgomery, Jr., 
 J. E. Peralta, F. Ogliaro, M. Bearpark, J. J. Heyd, E. Brothers, 
 K. N. Kudin, V. N. Staroverov, T. Keith, R. Kobayashi, J. Normand, 
 K. Raghavachari, A. Rendell, J. C. Burant, S. S. Iyengar, J. Tomasi, 
 M. Cossi, N. Rega, J. M. Millam, M. Klene, J. E. Knox, J. B. Cross, 
 V. Bakken, C. Adamo, J. Jaramillo, R. Gomperts, R. E. Stratmann, 
 O. Yazyev, A. J. Austin, R. Cammi, C. Pomelli, J. W. Ochterski, 
 R. L. Martin, K. Morokuma, V. G. Zakrzewski, G. A. Voth, 
 P. Salvador, J. J. Dannenberg, S. Dapprich, A. D. Daniels, 
 O. Farkas, J. B. Foresman, J. V. Ortiz, J. Cioslowski, 
 and D. J. Fox, Gaussian, Inc., Wallingford CT, 2013.
 
 ******************************************
 Gaussian 09:  ES64L-G09RevD.01 24-Apr-2013
                21-Jul-2020 
 ******************************************
 %nprocshared=20
 Will use up to   20 processors via shared memory.
 -----------------------------------------------------
 #opt M06/lanl2dz integral=ultrafine geom=connectivity
 -----------------------------------------------------
 1/14=-1,18=20,19=15,26=4,38=1,57=2/1,3;
 2/9=110,12=2,17=6,18=5,40=1/2;
 3/5=6,6=3,11=2,16=1,25=1,30=1,71=1,74=-54,75=-5/1,2,3;
 4//1;
 5/5=2,38=5/2;
 6/7=2,8=2,9=2,10=2,28=1/1;
 7//1,2,3,16;
 1/14=-1,18=20,19=15,26=4/3(2);
 2/9=110/2;
 99//99;
 2/9=110/2;
 3/5=6,6=3,11=2,16=1,25=1,30=1,71=1,74=-54,75=-5/1,2,3;
 4/5=5,16=3,69=1/1;
 5/5=2,38=5/2;
 7//1,2,3,16;
 1/14=-1,18=20,19=15,26=4/3(-5);
 2/9=110/2;
 6/7=2,8=2,9=2,10=2,19=2,28=1/1;
 99/9=1/99;
 -------------------
 Title Card Required
 -------------------
 Symbolic Z-matrix:
 Charge =  0 Multiplicity = 1
 O(PDBName=O1,ResName=MOL,ResNum=1) 0     4.5605    0.9513    0.07594  L 
 O(PDBName=O2,ResName=MOL,ResNum=1) 0    -1.95094   0.53194  -0.02071  L 
 O(PDBName=O3,ResName=MOL,ResNum=1) 0     2.50479   2.01401   0.07045  L 
 O(PDBName=O4,ResName=MOL,ResNum=1) 0    -5.40794  -0.23887   0.00517  L 
 O(PDBName=O5,ResName=MOL,ResNum=1) 0    -4.3029    1.78552  -0.0375   L 
 N(PDBName=N6,ResName=MOL,ResNum=1) 0     2.70436  -0.33262  -0.03175  L 
 N(PDBName=N7,ResName=MOL,ResNum=1) 0     1.39019  -0.7931   -0.00333  L 
 N(PDBName=N8,ResName=MOL,ResNum=1) 0    -4.35015   0.50406  -0.01243  L 
 C(PDBName=C9,ResName=MOL,ResNum=1) 0     3.78173  -1.32364   0.11635  L 
 C(PDBName=C10,ResName=MOL,ResNum=1) 0     5.01307  -0.43919  -0.20076  L 
 C(PDBName=C11,ResName=MOL,ResNum=1) 0     3.16661   0.98803   0.03973  L 
 C(PDBName=C12,ResName=MOL,ResNum=1) 0    -0.92468  -0.41792  -0.00567  L 
 C(PDBName=C13,ResName=MOL,ResNum=1) 0     0.42196   0.0761   -0.01986  L 
 C(PDBName=C14,ResName=MOL,ResNum=1) 0    -1.46549  -1.68751   0.0205   L 
 C(PDBName=C15,ResName=MOL,ResNum=1) 0    -3.12821  -0.19459  -0.00259  L 
 C(PDBName=C16,ResName=MOL,ResNum=1) 0    -2.87943  -1.54094   0.02293  L 
 H(PDBName=H17,ResName=MOL,ResNum=1) 0     3.80191  -1.71682   1.1376   L 
 H(PDBName=H18,ResName=MOL,ResNum=1) 0     3.65318  -2.1383   -0.59626  L 
 H(PDBName=H19,ResName=MOL,ResNum=1) 0     5.29052  -0.50438  -1.25507  L 
 H(PDBName=H20,ResName=MOL,ResNum=1) 0     5.87013  -0.64364   0.43733  L 
 H(PDBName=H21,ResName=MOL,ResNum=1) 0     0.56318   1.14899  -0.03817  L 
 H(PDBName=H22,ResName=MOL,ResNum=1) 0    -0.89866  -2.60083   0.03581  L 
 H(PDBName=H23,ResName=MOL,ResNum=1) 0    -3.63238  -2.30673   0.04065  L 
 
 Center=      0.59918839     -0.38604822     -0.00963543
 Residue   1 PDB Number     1_0 MOL charge    0.00000000 layers R        AvRTP=      0.00000000      0.00000000      0.00000000

 GradGradGradGradGradGradGradGradGradGradGradGradGradGradGradGradGradGrad
 Berny optimization.
 Initialization pass.
                           ----------------------------
                           !    Initial Parameters    !
                           ! (Angstroms and Degrees)  !
 --------------------------                            --------------------------
 ! Name  Definition              Value          Derivative Info.                !
 --------------------------------------------------------------------------------
 ! R1    R(1,10)                 1.4882         estimate D2E/DX2                !
 ! R2    R(1,11)                 1.3948         estimate D2E/DX2                !
 ! R3    R(2,12)                 1.3985         estimate D2E/DX2                !
 ! R4    R(2,15)                 1.3835         estimate D2E/DX2                !
 ! R5    R(3,11)                 1.2213         estimate D2E/DX2                !
 ! R6    R(4,8)                  1.2927         estimate D2E/DX2                !
 ! R7    R(5,8)                  1.2826         estimate D2E/DX2                !
 ! R8    R(6,7)                  1.3928         estimate D2E/DX2                !
 ! R9    R(6,9)                  1.4713         estimate D2E/DX2                !
 ! R10   R(6,11)                 1.401          estimate D2E/DX2                !
 ! R11   R(7,13)                 1.3012         estimate D2E/DX2                !
 ! R12   R(8,15)                 1.4076         estimate D2E/DX2                !
 ! R13   R(9,10)                 1.5489         estimate D2E/DX2                !
 ! R14   R(9,17)                 1.0945         estimate D2E/DX2                !
 ! R15   R(9,18)                 1.09           estimate D2E/DX2                !
 ! R16   R(10,19)                1.0922         estimate D2E/DX2                !
 ! R17   R(10,20)                1.0879         estimate D2E/DX2                !
 ! R18   R(12,13)                1.4345         estimate D2E/DX2                !
 ! R19   R(12,14)                1.3802         estimate D2E/DX2                !
 ! R20   R(13,21)                1.0823         estimate D2E/DX2                !
 ! R21   R(14,16)                1.4215         estimate D2E/DX2                !
 ! R22   R(14,22)                1.075          estimate D2E/DX2                !
 ! R23   R(15,16)                1.3694         estimate D2E/DX2                !
 ! R24   R(16,23)                1.0741         estimate D2E/DX2                !
 ! A1    A(10,1,11)            108.8849         estimate D2E/DX2                !
 ! A2    A(12,2,15)            105.5231         estimate D2E/DX2                !
 ! A3    A(7,6,9)              117.786          estimate D2E/DX2                !
 ! A4    A(7,6,11)             128.4561         estimate D2E/DX2                !
 ! A5    A(9,6,11)             112.8412         estimate D2E/DX2                !
 ! A6    A(6,7,13)             118.7489         estimate D2E/DX2                !
 ! A7    A(4,8,5)              127.2009         estimate D2E/DX2                !
 ! A8    A(4,8,15)             115.1496         estimate D2E/DX2                !
 ! A9    A(5,8,15)             117.6495         estimate D2E/DX2                !
 ! A10   A(6,9,10)             100.1895         estimate D2E/DX2                !
 ! A11   A(6,9,17)             110.4496         estimate D2E/DX2                !
 ! A12   A(6,9,18)             110.5647         estimate D2E/DX2                !
 ! A13   A(10,9,17)            112.4266         estimate D2E/DX2                !
 ! A14   A(10,9,18)            112.7502         estimate D2E/DX2                !
 ! A15   A(17,9,18)            110.1029         estimate D2E/DX2                !
 ! A16   A(1,10,9)             104.6967         estimate D2E/DX2                !
 ! A17   A(1,10,19)            108.2109         estimate D2E/DX2                !
 ! A18   A(1,10,20)            107.8251         estimate D2E/DX2                !
 ! A19   A(9,10,19)            111.4392         estimate D2E/DX2                !
 ! A20   A(9,10,20)            113.5097         estimate D2E/DX2                !
 ! A21   A(19,10,20)           110.7846         estimate D2E/DX2                !
 ! A22   A(1,11,3)             124.2636         estimate D2E/DX2                !
 ! A23   A(1,11,6)             107.8311         estimate D2E/DX2                !
 ! A24   A(3,11,6)             127.905          estimate D2E/DX2                !
 ! A25   A(2,12,13)            117.0581         estimate D2E/DX2                !
 ! A26   A(2,12,14)            109.7209         estimate D2E/DX2                !
 ! A27   A(13,12,14)           133.221          estimate D2E/DX2                !
 ! A28   A(7,13,12)            117.9272         estimate D2E/DX2                !
 ! A29   A(7,13,21)            124.4227         estimate D2E/DX2                !
 ! A30   A(12,13,21)           117.6492         estimate D2E/DX2                !
 ! A31   A(12,14,16)           107.1532         estimate D2E/DX2                !
 ! A32   A(12,14,22)           125.1096         estimate D2E/DX2                !
 ! A33   A(16,14,22)           127.7372         estimate D2E/DX2                !
 ! A34   A(2,15,8)             118.5515         estimate D2E/DX2                !
 ! A35   A(2,15,16)            111.2202         estimate D2E/DX2                !
 ! A36   A(8,15,16)            130.2283         estimate D2E/DX2                !
 ! A37   A(14,16,15)           106.3826         estimate D2E/DX2                !
 ! A38   A(14,16,23)           128.5927         estimate D2E/DX2                !
 ! A39   A(15,16,23)           125.0247         estimate D2E/DX2                !
 ! D1    D(11,1,10,9)          -20.6864         estimate D2E/DX2                !
 ! D2    D(11,1,10,19)          98.2666         estimate D2E/DX2                !
 ! D3    D(11,1,10,20)        -141.853          estimate D2E/DX2                !
 ! D4    D(10,1,11,3)         -170.9033         estimate D2E/DX2                !
 ! D5    D(10,1,11,6)            9.2626         estimate D2E/DX2                !
 ! D6    D(15,2,12,13)         179.9985         estimate D2E/DX2                !
 ! D7    D(15,2,12,14)           0.0173         estimate D2E/DX2                !
 ! D8    D(12,2,15,8)         -179.9839         estimate D2E/DX2                !
 ! D9    D(12,2,15,16)           0.0058         estimate D2E/DX2                !
 ! D10   D(9,6,7,13)           174.317          estimate D2E/DX2                !
 ! D11   D(11,6,7,13)            6.1387         estimate D2E/DX2                !
 ! D12   D(7,6,9,10)           171.2507         estimate D2E/DX2                !
 ! D13   D(7,6,9,17)           -70.0179         estimate D2E/DX2                !
 ! D14   D(7,6,9,18)            52.1015         estimate D2E/DX2                !
 ! D15   D(11,6,9,10)          -18.7743         estimate D2E/DX2                !
 ! D16   D(11,6,9,17)           99.9571         estimate D2E/DX2                !
 ! D17   D(11,6,9,18)         -137.9235         estimate D2E/DX2                !
 ! D18   D(7,6,11,1)           175.5549         estimate D2E/DX2                !
 ! D19   D(7,6,11,3)            -4.2714         estimate D2E/DX2                !
 ! D20   D(9,6,11,1)             6.8969         estimate D2E/DX2                !
 ! D21   D(9,6,11,3)          -172.9294         estimate D2E/DX2                !
 ! D22   D(6,7,13,12)          179.2948         estimate D2E/DX2                !
 ! D23   D(6,7,13,21)           -1.0564         estimate D2E/DX2                !
 ! D24   D(4,8,15,2)           179.9775         estimate D2E/DX2                !
 ! D25   D(4,8,15,16)           -0.0099         estimate D2E/DX2                !
 ! D26   D(5,8,15,2)            -0.0176         estimate D2E/DX2                !
 ! D27   D(5,8,15,16)          179.9951         estimate D2E/DX2                !
 ! D28   D(6,9,10,1)            22.7187         estimate D2E/DX2                !
 ! D29   D(6,9,10,19)          -94.0313         estimate D2E/DX2                !
 ! D30   D(6,9,10,20)          140.0548         estimate D2E/DX2                !
 ! D31   D(17,9,10,1)          -94.5527         estimate D2E/DX2                !
 ! D32   D(17,9,10,19)         148.6973         estimate D2E/DX2                !
 ! D33   D(17,9,10,20)          22.7834         estimate D2E/DX2                !
 ! D34   D(18,9,10,1)          140.2591         estimate D2E/DX2                !
 ! D35   D(18,9,10,19)          23.5091         estimate D2E/DX2                !
 ! D36   D(18,9,10,20)        -102.4047         estimate D2E/DX2                !
 ! D37   D(2,12,13,7)          179.8575         estimate D2E/DX2                !
 ! D38   D(2,12,13,21)           0.1846         estimate D2E/DX2                !
 ! D39   D(14,12,13,7)          -0.1668         estimate D2E/DX2                !
 ! D40   D(14,12,13,21)       -179.8397         estimate D2E/DX2                !
 ! D41   D(2,12,14,16)          -0.0329         estimate D2E/DX2                !
 ! D42   D(2,12,14,22)         179.969          estimate D2E/DX2                !
 ! D43   D(13,12,14,16)        179.9901         estimate D2E/DX2                !
 ! D44   D(13,12,14,22)         -0.0081         estimate D2E/DX2                !
 ! D45   D(12,14,16,15)          0.0353         estimate D2E/DX2                !
 ! D46   D(12,14,16,23)       -179.9749         estimate D2E/DX2                !
 ! D47   D(22,14,16,15)       -179.9666         estimate D2E/DX2                !
 ! D48   D(22,14,16,23)          0.0232         estimate D2E/DX2                !
 ! D49   D(2,15,16,14)          -0.0256         estimate D2E/DX2                !
 ! D50   D(2,15,16,23)         179.9842         estimate D2E/DX2                !
 ! D51   D(8,15,16,14)         179.9625         estimate D2E/DX2                !
 ! D52   D(8,15,16,23)          -0.0277         estimate D2E/DX2                !
 --------------------------------------------------------------------------------
 Trust Radius=3.00D-01 FncErr=1.00D-07 GrdErr=1.00D-06
 Number of steps in this run=    125 maximum allowed number of steps=    138.
 GradGradGradGradGradGradGradGradGradGradGradGradGradGradGradGradGradGrad

                          Input orientation:                          
 ---------------------------------------------------------------------
 Center     Atomic      Atomic             Coordinates (Angstroms)
 Number     Number       Type             X           Y           Z
 ---------------------------------------------------------------------
      1          8           0        4.560499    0.951298    0.075944
      2          8           0       -1.950936    0.531942   -0.020708
      3          8           0        2.504785    2.014010    0.070454
      4          8           0       -5.407944   -0.238874    0.005172
      5          8           0       -4.302899    1.785517   -0.037498
      6          7           0        2.704357   -0.332620   -0.031747
      7          7           0        1.390192   -0.793096   -0.003334
      8          7           0       -4.350154    0.504062   -0.012426
      9          6           0        3.781728   -1.323636    0.116346
     10          6           0        5.013067   -0.439186   -0.200761
     11          6           0        3.166614    0.988032    0.039728
     12          6           0       -0.924680   -0.417920   -0.005665
     13          6           0        0.421962    0.076102   -0.019860
     14          6           0       -1.465494   -1.687510    0.020495
     15          6           0       -3.128211   -0.194592   -0.002588
     16          6           0       -2.879433   -1.540935    0.022927
     17          1           0        3.801914   -1.716818    1.137603
     18          1           0        3.653175   -2.138299   -0.596255
     19          1           0        5.290520   -0.504383   -1.255067
     20          1           0        5.870127   -0.643642    0.437331
     21          1           0        0.563178    1.148990   -0.038168
     22          1           0       -0.898658   -2.600826    0.035812
     23          1           0       -3.632376   -2.306725    0.040650
 ---------------------------------------------------------------------
                    Distance matrix (angstroms):
                    1          2          3          4          5
     1  O    0.000000
     2  O    6.525641   0.000000
     3  O    2.314162   4.696625   0.000000
     4  O   10.039491   3.541995   8.227456   0.000000
     5  O    8.903292   2.665232   6.812373   2.306752   0.000000
     6  N    2.259492   4.734907   2.357318   8.112927   7.320394
     7  N    3.619398   3.594324   3.021193   6.820696   6.249936
     8  N    8.922307   2.399394   7.019758   1.292743   1.282571
     9  C    2.404879   6.027055   3.573873   9.254142   8.663238
    10  C    1.488230   7.033694   3.518978  10.424970   9.579310
    11  C    1.394839   5.138189   1.221308   8.661959   7.512361
    12  C    5.654079   1.398451   4.204915   4.486851   4.033424
    13  C    4.231151   2.416286   2.846365   5.838462   5.024612
    14  C    6.578676   2.272294   5.428339   4.200202   4.485103
    15  C    7.774027   1.383530   6.050942   2.280176   2.302595
    16  C    7.846440   2.271746   6.452108   2.844125   3.618728
    17  H    2.970087   6.284416   4.091507   9.396180   8.907031
    18  H    3.289483   6.234381   4.359469   9.277576   8.888625
    19  H    2.103219   7.418645   3.982415  10.775706   9.937797
    20  H    2.095128   7.922173   4.303863  11.293604  10.469801
    21  H    4.003833   2.588788   2.128355   6.130444   4.907532
    22  H    6.513186   3.305256   5.734225   5.090522   5.552858
    23  H    8.816981   3.299854   7.505624   2.725786   4.147548
                    6          7          8          9         10
     6  N    0.000000
     7  N    1.392794   0.000000
     8  N    7.103980   5.885089   0.000000
     9  C    1.471317   2.452599   8.335740   0.000000
    10  C    2.317340   3.645470   9.412497   1.548872   0.000000
    11  C    1.401040   2.515938   7.532513   2.393333   2.346098
    12  C    3.630133   2.345079   3.547389   4.794318   5.940989
    13  C    2.318733   1.301248   4.791273   3.642231   4.623472
    14  C    4.384759   2.992572   3.622890   5.260697   6.601441
    15  C    5.834274   4.557869   1.407608   7.002581   8.147362
    16  C    5.713294   4.334703   2.519183   6.665359   7.972167
    17  H    2.118494   2.823367   8.527080   1.094516   2.211437
    18  H    2.116460   2.698559   8.448444   1.089955   2.211946
    19  H    2.866052   4.106428   9.772600   2.197363   1.092150
    20  H    3.215411   4.504036  10.294350   2.219647   1.087895
    21  H    2.603816   2.111129   4.955545   4.061628   4.727605
    22  H    4.258056   2.916891   4.642788   4.852186   6.298980
    23  H    6.637508   5.245874   2.901473   7.479380   8.848145
                   11         12         13         14         15
    11  C    0.000000
    12  C    4.326367   0.000000
    13  C    2.892798   1.434470   0.000000
    14  C    5.349329   1.380226   2.583495   0.000000
    15  C    6.405093   2.214821   3.560520   2.234718   0.000000
    16  C    6.553674   2.254560   3.676391   1.421518   1.369372
    17  H    2.987499   5.033377   3.997294   5.384643   7.186365
    18  H    3.227253   4.925978   3.959361   5.175361   7.079381
    19  H    2.900823   6.340126   5.056239   6.976430   8.517024
    20  H    3.182677   6.812973   5.514486   7.421236   9.020269
    21  H    2.609570   2.161015   1.082297   3.487791   3.928464
    22  H    5.422763   2.183455   2.985478   1.075027   3.280601
    23  H    7.555243   3.301719   4.703104   2.253711   2.171902
                   16         17         18         19         20
    16  C    0.000000
    17  H    6.775975   0.000000
    18  H    6.589021   1.790540   0.000000
    19  H    8.334017   3.067705   2.405122   0.000000
    20  H    8.805207   2.433021   2.866562   1.794310   0.000000
    21  H    4.369325   4.481596   4.545967   5.153858   5.621684
    22  H    2.246554   4.908237   4.618725   6.660883   7.057495
    23  H    1.074091   7.537902   7.315276   9.194857   9.655090
                   21         22         23
    21  H    0.000000
    22  H    4.025364   0.000000
    23  H    5.436070   2.749497   0.000000
 Stoichiometry    C8H7N3O5
 Framework group  C1[X(C8H7N3O5)]
 Deg. of freedom    63
 Full point group                 C1      NOp   1
 Largest Abelian subgroup         C1      NOp   1
 Largest concise Abelian subgroup C1      NOp   1
                         Standard orientation:                         
 ---------------------------------------------------------------------
 Center     Atomic      Atomic             Coordinates (Angstroms)
 Number     Number       Type             X           Y           Z
 ---------------------------------------------------------------------
      1          8           0       -4.560499    0.951298   -0.075944
      2          8           0        1.950936    0.531942    0.020708
      3          8           0       -2.504785    2.014010   -0.070454
      4          8           0        5.407944   -0.238874   -0.005172
      5          8           0        4.302899    1.785517    0.037498
      6          7           0       -2.704357   -0.332620    0.031747
      7          7           0       -1.390192   -0.793096    0.003334
      8          7           0        4.350154    0.504062    0.012426
      9          6           0       -3.781728   -1.323636   -0.116346
     10          6           0       -5.013067   -0.439186    0.200761
     11          6           0       -3.166614    0.988032   -0.039728
     12          6           0        0.924680   -0.417920    0.005665
     13          6           0       -0.421962    0.076102    0.019860
     14          6           0        1.465494   -1.687510   -0.020495
     15          6           0        3.128211   -0.194592    0.002588
     16          6           0        2.879433   -1.540935   -0.022927
     17          1           0       -3.801914   -1.716818   -1.137603
     18          1           0       -3.653175   -2.138299    0.596255
     19          1           0       -5.290520   -0.504383    1.255067
     20          1           0       -5.870127   -0.643642   -0.437331
     21          1           0       -0.563178    1.148990    0.038168
     22          1           0        0.898658   -2.600826   -0.035812
     23          1           0        3.632376   -2.306725   -0.040650
 ---------------------------------------------------------------------
 Rotational constants (GHZ):      1.8325985      0.1936513      0.1756727
 Standard basis: LANL2DZ (5D, 7F)
 There are   158 symmetry adapted cartesian basis functions of A   symmetry.
 There are   158 symmetry adapted basis functions of A   symmetry.
   158 basis functions,   428 primitive gaussians,   158 cartesian basis functions
    58 alpha electrons       58 beta electrons
       nuclear repulsion energy      1030.6278920648 Hartrees.
 NAtoms=   23 NActive=   23 NUniq=   23 SFac= 1.00D+00 NAtFMM=   60 NAOKFM=F Big=F
 Integral buffers will be    131072 words long.
 Raffenetti 2 integral format.
 Two-electron integral symmetry is turned on.
 One-electron integrals computed using PRISM.
 PrsmSu:  requested number of processors reduced to:   9 ShMem   1 Linda.
   1 Symmetry operations used in ECPInt.
 ECPInt:  NShTT=    4465 NPrTT=   36515 LenC2=    4014 LenP2D=   19201.
 LDataN:  DoStor=T MaxTD1= 2 Len=   12
 Number of processors reduced to  13 by ecpmxn.
 NBasis=   158 RedAO= T EigKep=  2.04D-03  NBF=   158
 NBsUse=   158 1.00D-06 EigRej= -1.00D+00 NBFU=   158
 ExpMin= 1.15D-01 ExpMax= 7.82D+03 ExpMxC= 2.73D+02 IAcc=3 IRadAn=         5 AccDes= 0.00D+00
 Harris functional with IExCor= 1009 and IRadAn=       5 diagonalized for initial guess.
 HarFok:  IExCor= 1009 AccDes= 0.00D+00 IRadAn=         5 IDoV= 1 UseB2=F ITyADJ=14
 ICtDFT=  3500011 ScaDFX=  1.000000  1.000000  1.000000  1.000000
 FoFCou: FMM=F IPFlag=           0 FMFlag=      100000 FMFlg1=           0
         NFxFlg=           0 DoJE=T BraDBF=F KetDBF=T FulRan=T
         wScrn=  0.000000 ICntrl=     500 IOpCl=  0 I1Cent=   200000004 NGrid=           0
         NMat0=    1 NMatS0=      1 NMatT0=    0 NMatD0=    1 NMtDS0=    0 NMtDT0=    0
 Petite list used in FoFCou.
 Requested convergence on RMS density matrix=1.00D-08 within 128 cycles.
 Requested convergence on MAX density matrix=1.00D-06.
 Requested convergence on             energy=1.00D-06.
 No special actions if energy rises.
 Integral accuracy reduced to 1.0D-05 until final iterations.
 Initial convergence to 1.0D-05 achieved.  Increase integral accuracy.
 SCF Done:  E(RM06) =  -848.635230669     A.U. after   17 cycles
            NFock= 17  Conv=0.51D-08     -V/T= 2.0046

 **********************************************************************

            Population analysis using the SCF density.

 **********************************************************************

 Orbital symmetries:
       Occupied  (A) (A) (A) (A) (A) (A) (A) (A) (A) (A) (A) (A)
                 (A) (A) (A) (A) (A) (A) (A) (A) (A) (A) (A) (A)
                 (A) (A) (A) (A) (A) (A) (A) (A) (A) (A) (A) (A)
                 (A) (A) (A) (A) (A) (A) (A) (A) (A) (A) (A) (A)
                 (A) (A) (A) (A) (A) (A) (A) (A) (A) (A)
       Virtual   (A) (A) (A) (A) (A) (A) (A) (A) (A) (A) (A) (A)
                 (A) (A) (A) (A) (A) (A) (A) (A) (A) (A) (A) (A)
                 (A) (A) (A) (A) (A) (A) (A) (A) (A) (A) (A) (A)
                 (A) (A) (A) (A) (A) (A) (A) (A) (A) (A) (A) (A)
                 (A) (A) (A) (A) (A) (A) (A) (A) (A) (A) (A) (A)
                 (A) (A) (A) (A) (A) (A) (A) (A) (A) (A) (A) (A)
                 (A) (A) (A) (A) (A) (A) (A) (A) (A) (A) (A) (A)
                 (A) (A) (A) (A) (A) (A) (A) (A) (A) (A) (A) (A)
                 (A) (A) (A) (A)
 The electronic state is 1-A.
 Alpha  occ. eigenvalues --  -19.34021 -19.29577 -19.27756 -19.27421 -19.24747
 Alpha  occ. eigenvalues --  -14.65019 -14.51003 -14.49714 -10.45200 -10.39113
 Alpha  occ. eigenvalues --  -10.37181 -10.35535 -10.33951 -10.33481 -10.31608
 Alpha  occ. eigenvalues --  -10.30409  -1.24375  -1.19098  -1.17354  -1.09514
 Alpha  occ. eigenvalues --   -1.07670  -1.06867  -0.93021  -0.88308  -0.86345
 Alpha  occ. eigenvalues --   -0.81548  -0.77670  -0.70908  -0.70096  -0.67263
 Alpha  occ. eigenvalues --   -0.61094  -0.60707  -0.58263  -0.57193  -0.56606
 Alpha  occ. eigenvalues --   -0.56391  -0.54701  -0.52619  -0.52111  -0.50361
 Alpha  occ. eigenvalues --   -0.48545  -0.47909  -0.47329  -0.47151  -0.46493
 Alpha  occ. eigenvalues --   -0.45811  -0.43187  -0.41670  -0.40646  -0.35916
 Alpha  occ. eigenvalues --   -0.34764  -0.33971  -0.33016  -0.32565  -0.32423
 Alpha  occ. eigenvalues --   -0.31192  -0.30672  -0.26846
 Alpha virt. eigenvalues --   -0.12684  -0.07203   0.00533   0.02259   0.03835
 Alpha virt. eigenvalues --    0.06161   0.07491   0.09832   0.10715   0.11780
 Alpha virt. eigenvalues --    0.13100   0.13199   0.14495   0.14743   0.15315
 Alpha virt. eigenvalues --    0.15824   0.16818   0.18675   0.19241   0.20145
 Alpha virt. eigenvalues --    0.21973   0.23559   0.23832   0.25370   0.26125
 Alpha virt. eigenvalues --    0.26384   0.27342   0.28614   0.29469   0.29941
 Alpha virt. eigenvalues --    0.30888   0.31603   0.31788   0.33228   0.33772
 Alpha virt. eigenvalues --    0.34360   0.35121   0.35467   0.36732   0.38532
 Alpha virt. eigenvalues --    0.39298   0.40270   0.40981   0.42363   0.43851
 Alpha virt. eigenvalues --    0.45086   0.46194   0.47594   0.48589   0.52996
 Alpha virt. eigenvalues --    0.55351   0.57641   0.57964   0.58610   0.59846
 Alpha virt. eigenvalues --    0.60336   0.61500   0.64085   0.65585   0.67022
 Alpha virt. eigenvalues --    0.67879   0.70134   0.70234   0.74502   0.76856
 Alpha virt. eigenvalues --    0.78103   0.79454   0.81157   0.82093   0.83691
 Alpha virt. eigenvalues --    0.85603   0.87160   0.88614   0.89147   0.89568
 Alpha virt. eigenvalues --    0.93325   0.93751   0.97179   0.99965   1.02646
 Alpha virt. eigenvalues --    1.04070   1.05762   1.07022   1.08748   1.12112
 Alpha virt. eigenvalues --    1.14605   1.16258   1.17088   1.23377   1.35063
 Alpha virt. eigenvalues --    1.38974   1.43585   1.56335   1.59978   1.73325
 Alpha virt. eigenvalues --    1.78723   1.84696   1.96376   1.97705   2.00118
          Condensed to atoms (all electrons):
               1          2          3          4          5          6
     1  O    8.068026   0.000000  -0.061693   0.000000   0.000000  -0.073740
     2  O    0.000000   7.838070   0.000016   0.002172   0.002492  -0.000097
     3  O   -0.061693   0.000016   7.819637   0.000000   0.000000  -0.049432
     4  O    0.000000   0.002172   0.000000   8.195901  -0.100920   0.000000
     5  O    0.000000   0.002492   0.000000  -0.100920   8.150841   0.000000
     6  N   -0.073740  -0.000097  -0.049432   0.000000   0.000000   7.157072
     7  N    0.008508  -0.000245   0.007164   0.000000   0.000000   0.112618
     8  N    0.000000  -0.027966   0.000000   0.255281   0.270378   0.000000
     9  C   -0.020809   0.000004   0.001837   0.000000   0.000000   0.197735
    10  C    0.227657   0.000000  -0.000459   0.000000   0.000000  -0.011636
    11  C    0.234563   0.000026   0.575316   0.000000   0.000000   0.201222
    12  C    0.000007   0.314058   0.001356   0.002247   0.002814   0.001053
    13  C   -0.001767  -0.031440   0.008201   0.000022   0.000110  -0.112540
    14  C   -0.000003  -0.092121  -0.000136   0.000225  -0.000490  -0.000736
    15  C    0.000000   0.346909   0.000018  -0.126177  -0.107484  -0.000102
    16  C    0.000000  -0.073838  -0.000001   0.033703   0.011608   0.000005
    17  H    0.000447   0.000000   0.000024   0.000000   0.000000  -0.050105
    18  H    0.001848   0.000000  -0.000067   0.000000   0.000000  -0.033701
    19  H   -0.044516   0.000000   0.000101   0.000000   0.000000  -0.002479
    20  H   -0.033441   0.000000  -0.000079   0.000000   0.000000   0.001446
    21  H   -0.000246  -0.000516  -0.002387   0.000000   0.000002  -0.020139
    22  H    0.000000   0.002943   0.000000  -0.000004   0.000001   0.000091
    23  H    0.000000   0.002373   0.000000  -0.001294  -0.000015   0.000000
               7          8          9         10         11         12
     1  O    0.008508   0.000000  -0.020809   0.227657   0.234563   0.000007
     2  O   -0.000245  -0.027966   0.000004   0.000000   0.000026   0.314058
     3  O    0.007164   0.000000   0.001837  -0.000459   0.575316   0.001356
     4  O    0.000000   0.255281   0.000000   0.000000   0.000000   0.002247
     5  O    0.000000   0.270378   0.000000   0.000000   0.000000   0.002814
     6  N    0.112618   0.000000   0.197735  -0.011636   0.201222   0.001053
     7  N    6.480626   0.000002  -0.041133   0.008477  -0.070435  -0.065119
     8  N    0.000002   6.402602   0.000000   0.000000   0.000000  -0.008228
     9  C   -0.041133   0.000000   5.432069   0.204503  -0.134992   0.000174
    10  C    0.008477   0.000000   0.204503   5.259716  -0.077089   0.000022
    11  C   -0.070435   0.000000  -0.134992  -0.077089   4.810815  -0.000667
    12  C   -0.065119  -0.008228   0.000174   0.000022  -0.000667   4.914473
    13  C    0.573135   0.000194  -0.001200  -0.000568  -0.017586   0.239749
    14  C    0.022285   0.000985  -0.000210   0.000026   0.000385   0.461784
    15  C   -0.000115  -0.033730   0.000002   0.000000   0.000012  -0.157481
    16  C    0.001213   0.035451  -0.000004   0.000000   0.000002  -0.088748
    17  H    0.000351   0.000000   0.377378  -0.036692   0.003265  -0.000034
    18  H    0.002080   0.000000   0.364804  -0.027554   0.001438  -0.000034
    19  H   -0.000183   0.000000  -0.037951   0.358458   0.004460   0.000000
    20  H   -0.000015   0.000000  -0.023382   0.357765  -0.001265   0.000000
    21  H   -0.038922  -0.000007  -0.000544   0.000146   0.012322  -0.023996
    22  H    0.001317  -0.000013   0.000027   0.000000  -0.000002  -0.010249
    23  H    0.000004  -0.000558   0.000000   0.000000   0.000000   0.002978
              13         14         15         16         17         18
     1  O   -0.001767  -0.000003   0.000000   0.000000   0.000447   0.001848
     2  O   -0.031440  -0.092121   0.346909  -0.073838   0.000000   0.000000
     3  O    0.008201  -0.000136   0.000018  -0.000001   0.000024  -0.000067
     4  O    0.000022   0.000225  -0.126177   0.033703   0.000000   0.000000
     5  O    0.000110  -0.000490  -0.107484   0.011608   0.000000   0.000000
     6  N   -0.112540  -0.000736  -0.000102   0.000005  -0.050105  -0.033701
     7  N    0.573135   0.022285  -0.000115   0.001213   0.000351   0.002080
     8  N    0.000194   0.000985  -0.033730   0.035451   0.000000   0.000000
     9  C   -0.001200  -0.000210   0.000002  -0.000004   0.377378   0.364804
    10  C   -0.000568   0.000026   0.000000   0.000000  -0.036692  -0.027554
    11  C   -0.017586   0.000385   0.000012   0.000002   0.003265   0.001438
    12  C    0.239749   0.461784  -0.157481  -0.088748  -0.000034  -0.000034
    13  C    5.403108  -0.041560  -0.005102  -0.002487   0.000623   0.000410
    14  C   -0.041560   5.266073  -0.093357   0.450008  -0.000002   0.000007
    15  C   -0.005102  -0.093357   5.459521   0.408230   0.000000   0.000000
    16  C   -0.002487   0.450008   0.408230   5.180801   0.000000   0.000000
    17  H    0.000623  -0.000002   0.000000   0.000000   0.475240  -0.023263
    18  H    0.000410   0.000007   0.000000   0.000000  -0.023263   0.459064
    19  H   -0.000018   0.000000   0.000000   0.000000   0.002684  -0.002612
    20  H   -0.000012   0.000000   0.000000   0.000000  -0.003214   0.000943
    21  H    0.302761   0.007104  -0.000369   0.000183  -0.000006   0.000006
    22  H   -0.002784   0.337703   0.003359  -0.021074  -0.000001  -0.000001
    23  H   -0.000125  -0.016011  -0.015383   0.336916   0.000000   0.000000
              19         20         21         22         23
     1  O   -0.044516  -0.033441  -0.000246   0.000000   0.000000
     2  O    0.000000   0.000000  -0.000516   0.002943   0.002373
     3  O    0.000101  -0.000079  -0.002387   0.000000   0.000000
     4  O    0.000000   0.000000   0.000000  -0.000004  -0.001294
     5  O    0.000000   0.000000   0.000002   0.000001  -0.000015
     6  N   -0.002479   0.001446  -0.020139   0.000091   0.000000
     7  N   -0.000183  -0.000015  -0.038922   0.001317   0.000004
     8  N    0.000000   0.000000  -0.000007  -0.000013  -0.000558
     9  C   -0.037951  -0.023382  -0.000544   0.000027   0.000000
    10  C    0.358458   0.357765   0.000146   0.000000   0.000000
    11  C    0.004460  -0.001265   0.012322  -0.000002   0.000000
    12  C    0.000000   0.000000  -0.023996  -0.010249   0.002978
    13  C   -0.000018  -0.000012   0.302761  -0.002784  -0.000125
    14  C    0.000000   0.000000   0.007104   0.337703  -0.016011
    15  C    0.000000   0.000000  -0.000369   0.003359  -0.015383
    16  C    0.000000   0.000000   0.000183  -0.021074   0.336916
    17  H    0.002684  -0.003214  -0.000006  -0.000001   0.000000
    18  H   -0.002612   0.000943   0.000006  -0.000001   0.000000
    19  H    0.507108  -0.030887   0.000000   0.000000   0.000000
    20  H   -0.030887   0.490889   0.000000   0.000000   0.000000
    21  H    0.000000   0.000000   0.449839  -0.000013   0.000002
    22  H    0.000000   0.000000  -0.000013   0.418405  -0.000272
    23  H    0.000000   0.000000   0.000002  -0.000272   0.410794
 Mulliken charges:
               1
     1  O   -0.304841
     2  O   -0.282840
     3  O   -0.299417
     4  O   -0.261156
     5  O   -0.229338
     6  N   -0.316537
     7  N   -0.001611
     8  N    0.105608
     9  C   -0.318308
    10  C   -0.262772
    11  C    0.458209
    12  C    0.413842
    13  C   -0.311123
    14  C   -0.301959
    15  C    0.321246
    16  C   -0.271968
    17  H    0.253305
    18  H    0.256634
    19  H    0.245835
    20  H    0.241251
    21  H    0.314782
    22  H    0.270567
    23  H    0.280592
 Sum of Mulliken charges =   0.00000
 Mulliken charges with hydrogens summed into heavy atoms:
               1
     1  O   -0.304841
     2  O   -0.282840
     3  O   -0.299417
     4  O   -0.261156
     5  O   -0.229338
     6  N   -0.316537
     7  N   -0.001611
     8  N    0.105608
     9  C    0.191631
    10  C    0.224315
    11  C    0.458209
    12  C    0.413842
    13  C    0.003659
    14  C   -0.031392
    15  C    0.321246
    16  C    0.008624
 Electronic spatial extent (au):  <R**2>=           5589.2585
 Charge=              0.0000 electrons
 Dipole moment (field-independent basis, Debye):
    X=             -7.0549    Y=             -7.8150    Z=              0.2731  Tot=             10.5318
 Quadrupole moment (field-independent basis, Debye-Ang):
   XX=           -101.5064   YY=            -96.3037   ZZ=            -87.8554
   XY=              6.8234   XZ=             -1.8408   YZ=              0.5165
 Traceless Quadrupole moment (field-independent basis, Debye-Ang):
   XX=             -6.2845   YY=             -1.0819   ZZ=              7.3664
   XY=              6.8234   XZ=             -1.8408   YZ=              0.5165
 Octapole moment (field-independent basis, Debye-Ang**2):
  XXX=           -287.0042  YYY=            -33.0192  ZZZ=              0.3494  XYY=             11.3592
  XXY=           -116.1423  XXZ=              7.2872  XZZ=             -3.4278  YZZ=              6.4215
  YYZ=              0.6001  XYZ=             -2.1457
 Hexadecapole moment (field-independent basis, Debye-Ang**3):
 XXXX=          -6726.1867 YYYY=           -734.5382 ZZZZ=            -93.8364 XXXY=            217.8168
 XXXZ=            -38.1919 YYYX=              4.2019 YYYZ=              0.1759 ZZZX=             -1.5537
 ZZZY=              0.4503 XXYY=          -1237.4612 XXZZ=           -988.8407 YYZZ=           -138.4738
 XXYZ=              6.5641 YYXZ=             -4.5942 ZZXY=             17.7877
 N-N= 1.030627892065D+03 E-N=-4.046721057009D+03  KE= 8.447286845263D+02
 PrsmSu:  requested number of processors reduced to:   9 ShMem   1 Linda.
   1 Symmetry operations used in ECPInt.
 ECPInt:  NShTT=    4465 NPrTT=   36515 LenC2=    4014 LenP2D=   19201.
 LDataN:  DoStor=T MaxTD1= 3 Len=   28
 Number of processors reduced to  13 by ecpmxn.
 Calling FoFJK, ICntrl=      2127 FMM=F ISym2X=0 I1Cent= 0 IOpClX= 0 NMat=1 NMatS=1 NMatT=0.
 ***** Axes restored to original set *****
 -------------------------------------------------------------------
 Center     Atomic                   Forces (Hartrees/Bohr)
 Number     Number              X              Y              Z
 -------------------------------------------------------------------
      1        8          -0.005169700   -0.011449488   -0.003056701
      2        8           0.002645162   -0.007018320    0.000141935
      3        8          -0.002545550    0.006166630    0.000682031
      4        8           0.012307047    0.018778344   -0.000396078
      5        8          -0.010353445   -0.019844547    0.000410501
      6        7          -0.009066857   -0.008773815    0.003050094
      7        7           0.019280943    0.002122406   -0.000599991
      8        7          -0.011681769    0.008639755   -0.000130582
      9        6           0.001727736    0.009539269   -0.002090189
     10        6          -0.007208513    0.001725084    0.003096433
     11        6           0.009391326   -0.004214096   -0.000657957
     12        6          -0.007636557    0.003566024    0.000040902
     13        6          -0.003563383    0.005652596   -0.000126692
     14        6          -0.003832135   -0.003783352    0.000109566
     15        6           0.014167179    0.004065744   -0.000104115
     16        6           0.001692298   -0.006968733    0.000090081
     17        1          -0.000810884   -0.001018209   -0.000120182
     18        1          -0.000148309   -0.001024475    0.000179907
     19        1           0.001023655    0.001727545   -0.000266745
     20        1           0.000611424    0.001003837    0.000145898
     21        1          -0.000377462    0.005381584   -0.000481335
     22        1           0.001276707   -0.001798493    0.000040116
     23        1          -0.001728913   -0.002475291    0.000043103
 -------------------------------------------------------------------
 Cartesian Forces:  Max     0.019844547 RMS     0.006329549

 GradGradGradGradGradGradGradGradGradGradGradGradGradGradGradGradGradGrad
 Berny optimization.
 FormGI is forming the generalized inverse of G from B-inverse, IUseBI=4.
 Internal  Forces:  Max     0.020865546 RMS     0.004604649
 Search for a local minimum.
 Step number   1 out of a maximum of  125
 All quantities printed in internal units (Hartrees-Bohrs-Radians)
 Mixed Optimization -- RFO/linear search
 Second derivative matrix not updated -- first step.
 ITU=  0
     Eigenvalues ---    0.00514   0.01174   0.01291   0.01390   0.01591
     Eigenvalues ---    0.01591   0.01633   0.01704   0.01909   0.01922
     Eigenvalues ---    0.02002   0.02061   0.02132   0.02189   0.02273
     Eigenvalues ---    0.02998   0.04355   0.04843   0.05477   0.05810
     Eigenvalues ---    0.08004   0.08692   0.10979   0.11405   0.16000
     Eigenvalues ---    0.16000   0.16000   0.22000   0.22424   0.22854
     Eigenvalues ---    0.24033   0.24343   0.24718   0.25000   0.25000
     Eigenvalues ---    0.25000   0.25000   0.25000   0.25000   0.27134
     Eigenvalues ---    0.32347   0.34296   0.34565   0.34650   0.34818
     Eigenvalues ---    0.35057   0.35718   0.36602   0.36718   0.39806
     Eigenvalues ---    0.40354   0.42822   0.43178   0.44383   0.45051
     Eigenvalues ---    0.45297   0.46836   0.48416   0.50142   0.66848
     Eigenvalues ---    0.69250   0.72276   0.94806
 RFO step:  Lambda=-6.07165766D-03 EMin= 5.14291444D-03
 Linear search not attempted -- first point.
 Iteration  1 RMS(Cart)=  0.07073692 RMS(Int)=  0.00135735
 Iteration  2 RMS(Cart)=  0.00265228 RMS(Int)=  0.00005639
 Iteration  3 RMS(Cart)=  0.00000088 RMS(Int)=  0.00005638
 Variable       Old X    -DE/DX   Delta X   Delta X   Delta X     New X
                                 (Linear)    (Quad)   (Total)
    R1        2.81235  -0.00951   0.00000  -0.02780  -0.02778   2.78457
    R2        2.63586  -0.00661   0.00000  -0.01429  -0.01426   2.62160
    R3        2.64269  -0.00788   0.00000  -0.01835  -0.01836   2.62433
    R4        2.61449  -0.00495   0.00000  -0.01087  -0.01088   2.60361
    R5        2.30794   0.00658   0.00000   0.00689   0.00689   2.31483
    R6        2.44293  -0.02087   0.00000  -0.02987  -0.02987   2.41306
    R7        2.42371  -0.02022   0.00000  -0.02774  -0.02774   2.39597
    R8        2.63200  -0.01361   0.00000  -0.02869  -0.02869   2.60331
    R9        2.78039  -0.00445   0.00000  -0.01208  -0.01208   2.76830
   R10        2.64758  -0.00024   0.00000  -0.00066  -0.00065   2.64693
   R11        2.45900   0.00807   0.00000   0.01196   0.01196   2.47096
   R12        2.65999   0.01220   0.00000   0.02712   0.02712   2.68711
   R13        2.92694  -0.00606   0.00000  -0.02098  -0.02103   2.90591
   R14        2.06834   0.00024   0.00000   0.00068   0.00068   2.06902
   R15        2.05972   0.00066   0.00000   0.00187   0.00187   2.06159
   R16        2.06386   0.00041   0.00000   0.00118   0.00118   2.06504
   R17        2.05582   0.00038   0.00000   0.00106   0.00106   2.05688
   R18        2.71076   0.00532   0.00000   0.01298   0.01298   2.72373
   R19        2.60825   0.00654   0.00000   0.01314   0.01315   2.62140
   R20        2.04524   0.00529   0.00000   0.01457   0.01457   2.05982
   R21        2.68628  -0.00033   0.00000   0.00075   0.00076   2.68704
   R22        2.03151   0.00220   0.00000   0.00592   0.00592   2.03743
   R23        2.58774   0.00869   0.00000   0.01756   0.01757   2.60531
   R24        2.02974   0.00298   0.00000   0.00798   0.00798   2.03772
    A1        1.90040   0.00398   0.00000   0.01549   0.01549   1.91589
    A2        1.84173   0.00216   0.00000   0.00351   0.00349   1.84522
    A3        2.05575  -0.00344   0.00000  -0.01298  -0.01310   2.04265
    A4        2.24198   0.00472   0.00000   0.01966   0.01965   2.26163
    A5        1.96945  -0.00121   0.00000  -0.00307  -0.00315   1.96630
    A6        2.07256   0.01341   0.00000   0.05238   0.05238   2.12493
    A7        2.22007  -0.01452   0.00000  -0.05671  -0.05671   2.16337
    A8        2.00974   0.00573   0.00000   0.02239   0.02239   2.03213
    A9        2.05337   0.00879   0.00000   0.03431   0.03431   2.08768
   A10        1.74864   0.00092   0.00000   0.00837   0.00833   1.75697
   A11        1.92771  -0.00066   0.00000  -0.00498  -0.00500   1.92271
   A12        1.92972  -0.00006   0.00000   0.00094   0.00091   1.93063
   A13        1.96221   0.00055   0.00000   0.00565   0.00559   1.96780
   A14        1.96786  -0.00013   0.00000   0.00082   0.00089   1.96875
   A15        1.92166  -0.00052   0.00000  -0.00936  -0.00937   1.91229
   A16        1.82730  -0.00086   0.00000  -0.00418  -0.00419   1.82311
   A17        1.88864  -0.00099   0.00000  -0.01283  -0.01278   1.87585
   A18        1.88190  -0.00024   0.00000  -0.00653  -0.00651   1.87540
   A19        1.94498   0.00182   0.00000   0.01521   0.01516   1.96014
   A20        1.98112   0.00090   0.00000   0.00810   0.00803   1.98914
   A21        1.93356  -0.00080   0.00000  -0.00194  -0.00213   1.93143
   A22        2.16881  -0.00008   0.00000  -0.00026  -0.00030   2.16851
   A23        1.88201  -0.00268   0.00000  -0.01056  -0.01056   1.87144
   A24        2.23236   0.00275   0.00000   0.01079   0.01074   2.24311
   A25        2.04305  -0.00443   0.00000  -0.01642  -0.01642   2.02663
   A26        1.91499   0.00156   0.00000   0.00437   0.00437   1.91936
   A27        2.32515   0.00286   0.00000   0.01205   0.01205   2.33720
   A28        2.05822  -0.00556   0.00000  -0.02459  -0.02459   2.03363
   A29        2.17159   0.00388   0.00000   0.01895   0.01894   2.19053
   A30        2.05337   0.00168   0.00000   0.00567   0.00566   2.05903
   A31        1.87018  -0.00150   0.00000  -0.00331  -0.00329   1.86689
   A32        2.18357   0.00061   0.00000   0.00082   0.00081   2.18438
   A33        2.22944   0.00089   0.00000   0.00249   0.00248   2.23192
   A34        2.06911  -0.00111   0.00000  -0.00461  -0.00461   2.06451
   A35        1.94116   0.00064   0.00000   0.00308   0.00308   1.94424
   A36        2.27291   0.00047   0.00000   0.00153   0.00153   2.27444
   A37        1.85673  -0.00286   0.00000  -0.00766  -0.00764   1.84908
   A38        2.24437   0.00092   0.00000   0.00074   0.00074   2.24510
   A39        2.18209   0.00194   0.00000   0.00692   0.00691   2.18900
    D1       -0.36105  -0.00006   0.00000   0.00664   0.00661  -0.35444
    D2        1.71507   0.00112   0.00000   0.01589   0.01584   1.73092
    D3       -2.47580  -0.00052   0.00000   0.00271   0.00275  -2.47306
    D4       -2.98282  -0.00030   0.00000  -0.01091  -0.01072  -2.99354
    D5        0.16166   0.00007   0.00000   0.00195   0.00197   0.16364
    D6        3.14157  -0.00001   0.00000  -0.00051  -0.00051   3.14106
    D7        0.00030  -0.00001   0.00000  -0.00041  -0.00041  -0.00011
    D8       -3.14131   0.00000   0.00000   0.00012   0.00012  -3.14119
    D9        0.00010   0.00000   0.00000  -0.00009  -0.00009   0.00001
   D10        3.04241   0.00083   0.00000   0.04833   0.04836   3.09077
   D11        0.10714   0.00066   0.00000   0.02616   0.02612   0.13326
   D12        2.98889  -0.00059   0.00000  -0.00781  -0.00756   2.98133
   D13       -1.22204   0.00025   0.00000   0.00100   0.00113  -1.22091
   D14        0.90934  -0.00089   0.00000  -0.01357  -0.01341   0.89593
   D15       -0.32767   0.00031   0.00000   0.01391   0.01393  -0.31375
   D16        1.74458   0.00115   0.00000   0.02271   0.02262   1.76720
   D17       -2.40722   0.00001   0.00000   0.00815   0.00808  -2.39914
   D18        3.06401  -0.00016   0.00000   0.00955   0.00980   3.07381
   D19       -0.07455   0.00023   0.00000   0.02305   0.02324  -0.05131
   D20        0.12037  -0.00007   0.00000  -0.01058  -0.01054   0.10984
   D21       -3.01819   0.00032   0.00000   0.00291   0.00290  -3.01529
   D22        3.12928   0.00033   0.00000   0.00818   0.00816   3.13745
   D23       -0.01844   0.00049   0.00000   0.01451   0.01453  -0.00391
   D24        3.14120   0.00000   0.00000   0.00014   0.00014   3.14133
   D25       -0.00017   0.00001   0.00000   0.00040   0.00040   0.00022
   D26       -0.00031   0.00001   0.00000   0.00024   0.00024  -0.00006
   D27        3.14151   0.00001   0.00000   0.00050   0.00050  -3.14117
   D28        0.39652  -0.00035   0.00000  -0.01266  -0.01265   0.38386
   D29       -1.64116   0.00042   0.00000  -0.00258  -0.00253  -1.64369
   D30        2.44442  -0.00071   0.00000  -0.01894  -0.01899   2.42543
   D31       -1.65026  -0.00032   0.00000  -0.01390  -0.01389  -1.66415
   D32        2.59526   0.00045   0.00000  -0.00382  -0.00377   2.59149
   D33        0.39765  -0.00069   0.00000  -0.02018  -0.02023   0.37742
   D34        2.44798   0.00004   0.00000  -0.00648  -0.00646   2.44153
   D35        0.41031   0.00081   0.00000   0.00360   0.00366   0.41398
   D36       -1.78730  -0.00032   0.00000  -0.01276  -0.01280  -1.80009
   D37        3.13911   0.00008   0.00000   0.00297   0.00296  -3.14112
   D38        0.00322  -0.00008   0.00000  -0.00298  -0.00297   0.00025
   D39       -0.00291   0.00008   0.00000   0.00283   0.00282  -0.00009
   D40       -3.13879  -0.00009   0.00000  -0.00312  -0.00311   3.14128
   D41       -0.00057   0.00002   0.00000   0.00073   0.00073   0.00016
   D42        3.14105   0.00000   0.00000   0.00019   0.00019   3.14125
   D43        3.14142   0.00002   0.00000   0.00086   0.00087  -3.14090
   D44       -0.00014   0.00001   0.00000   0.00033   0.00033   0.00019
   D45        0.00062  -0.00002   0.00000  -0.00077  -0.00076  -0.00015
   D46       -3.14115  -0.00001   0.00000  -0.00048  -0.00048   3.14155
   D47       -3.14101  -0.00001   0.00000  -0.00021  -0.00021  -3.14121
   D48        0.00041   0.00000   0.00000   0.00008   0.00008   0.00048
   D49       -0.00045   0.00001   0.00000   0.00053   0.00053   0.00008
   D50        3.14132   0.00001   0.00000   0.00026   0.00026   3.14158
   D51        3.14094   0.00001   0.00000   0.00028   0.00028   3.14122
   D52       -0.00048   0.00000   0.00000   0.00001   0.00001  -0.00047
         Item               Value     Threshold  Converged?
 Maximum Force            0.020866     0.000450     NO 
 RMS     Force            0.004605     0.000300     NO 
 Maximum Displacement     0.263492     0.001800     NO 
 RMS     Displacement     0.070605     0.001200     NO 
 Predicted change in Energy=-3.109469D-03
 GradGradGradGradGradGradGradGradGradGradGradGradGradGradGradGradGradGrad

                          Input orientation:                          
 ---------------------------------------------------------------------
 Center     Atomic      Atomic             Coordinates (Angstroms)
 Number     Number       Type             X           Y           Z
 ---------------------------------------------------------------------
      1          8           0        4.622246    0.890654    0.092515
      2          8           0       -1.969569    0.527723   -0.038533
      3          8           0        2.644219    2.083503    0.140257
      4          8           0       -5.419785   -0.269819   -0.007722
      5          8           0       -4.392550    1.726479   -0.085974
      6          7           0        2.708409   -0.276919   -0.014443
      7          7           0        1.393790   -0.688163    0.007342
      8          7           0       -4.372162    0.459734   -0.036090
      9          6           0        3.733590   -1.317875    0.092382
     10          6           0        5.001114   -0.501048   -0.209003
     11          6           0        3.240745    1.015739    0.072776
     12          6           0       -0.925600   -0.387393   -0.002886
     13          6           0        0.404825    0.166606   -0.025398
     14          6           0       -1.429214   -1.678934    0.047803
     15          6           0       -3.124825   -0.222460   -0.009066
     16          6           0       -2.847091   -1.571834    0.043664
     17          1           0        3.734655   -1.744451    1.100742
     18          1           0        3.556200   -2.108173   -0.638457
     19          1           0        5.280869   -0.543723   -1.264497
     20          1           0        5.850185   -0.752648    0.423858
     21          1           0        0.506450    1.251029   -0.068033
     22          1           0       -0.833250   -2.576737    0.082552
     23          1           0       -3.581918   -2.360398    0.074596
 ---------------------------------------------------------------------
                    Distance matrix (angstroms):
                    1          2          3          4          5
     1  O    0.000000
     2  O    6.603099   0.000000
     3  O    2.310360   4.872315   0.000000
     4  O   10.109359   3.541330   8.401677   0.000000
     5  O    9.055220   2.703721   7.049452   2.246451   0.000000
     6  N    2.244424   4.746737   2.366357   8.128200   7.378506
     7  N    3.594836   3.576684   3.043579   6.826422   6.270641
     8  N    9.005643   2.403556   7.203980   1.276937   1.267890
     9  C    2.380611   5.995781   3.571890   9.213724   8.679519
    10  C    1.473529   7.048251   3.515230  10.425407   9.654944
    11  C    1.387293   5.234302   1.224956   8.755793   7.667956
    12  C    5.693953   1.388733   4.343895   4.495725   4.061417
    13  C    4.280747   2.401733   2.952427   5.840964   5.044966
    14  C    6.574569   2.273494   5.545930   4.232416   4.516204
    15  C    7.827288   1.377773   6.214630   2.295449   2.326243
    16  C    7.864936   2.277047   6.597371   2.883858   3.644739
    17  H    2.957721   6.244909   4.094486   9.338469   8.916676
    18  H    3.265538   6.151584   4.359846   9.183991   8.842648
    19  H    2.081515   7.431005   3.978389  10.777686  10.005887
    20  H    2.077995   7.937361   4.289802  11.288560  10.550811
    21  H    4.134661   2.579672   2.303574   6.118568   4.922050
    22  H    6.464158   3.308104   5.814977   5.134814   5.587010
    23  H    8.824849   3.309639   7.649663   2.784789   4.169589
                    6          7          8          9         10
     6  N    0.000000
     7  N    1.377614   0.000000
     8  N    7.118821   5.879265   0.000000
     9  C    1.464922   2.424548   8.299374   0.000000
    10  C    2.311835   3.618646   9.423975   1.537743   0.000000
    11  C    1.400697   2.513723   7.633960   2.385169   2.340714
    12  C    3.635706   2.338832   3.549298   4.752149   5.931386
    13  C    2.345919   1.307576   4.785984   3.646674   4.648155
    14  C    4.369148   2.992093   3.638940   5.175606   6.542361
    15  C    5.833491   4.542579   1.421960   6.946084   8.133170
    16  C    5.704714   4.332120   2.541549   6.585760   7.924944
    17  H    2.109613   2.791221   8.477695   1.094878   2.205765
    18  H    2.112258   2.666365   8.355592   1.090947   2.203419
    19  H    2.872520   4.092410   9.782480   2.198751   1.092773
    20  H    3.207675   4.476282  10.304261   2.215701   1.088456
    21  H    2.680694   2.133897   4.942471   4.127884   4.826142
    22  H    4.223970   2.920972   4.664561   4.737179   6.199459
    23  H    6.626992   5.249625   2.930850   7.389440   8.786697
                   11         12         13         14         15
    11  C    0.000000
    12  C    4.396923   0.000000
    13  C    2.961943   1.441337   0.000000
    14  C    5.391698   1.387183   2.602898   0.000000
    15  C    6.485392   2.205410   3.551065   2.235989   0.000000
    16  C    6.614992   2.257697   3.688075   1.421922   1.378669
    17  H    2.986521   4.977708   4.001012   5.270533   7.113409
    18  H    3.219346   4.842682   3.934670   5.050699   6.970519
    19  H    2.895225   6.335326   5.080920   6.930805   8.504999
    20  H    3.171692   6.799028   5.540650   7.347726   9.001073
    21  H    2.748010   2.177025   1.090008   3.513530   3.919285
    22  H    5.431704   2.192955   3.011713   1.078160   3.286690
    23  H    7.612294   3.309800   4.721214   2.258150   2.187856
                   16         17         18         19         20
    16  C    0.000000
    17  H    6.668327   0.000000
    18  H    6.461817   1.785764   0.000000
    19  H    8.296507   3.070322   2.411206   0.000000
    20  H    8.744039   2.432552   2.868506   1.793966   0.000000
    21  H    4.384890   4.556340   4.572811   5.239059   5.728191
    22  H    2.250977   4.753438   4.472883   6.582563   6.936288
    23  H    1.078314   7.413812   7.178077   9.145626   9.574518
                   21         22         23
    21  H    0.000000
    22  H    4.058234   0.000000
    23  H    5.456876   2.757179   0.000000
 Stoichiometry    C8H7N3O5
 Framework group  C1[X(C8H7N3O5)]
 Deg. of freedom    63
 Full point group                 C1      NOp   1
 Largest Abelian subgroup         C1      NOp   1
 Largest concise Abelian subgroup C1      NOp   1
                         Standard orientation:                         
 ---------------------------------------------------------------------
 Center     Atomic      Atomic             Coordinates (Angstroms)
 Number     Number       Type             X           Y           Z
 ---------------------------------------------------------------------
      1          8           0       -4.620313    0.862438   -0.072573
      2          8           0        1.973829    0.535939    0.035138
      3          8           0       -2.649122    2.066366   -0.124777
      4          8           0        5.428297   -0.242333   -0.009075
      5          8           0        4.390260    1.748064    0.076600
      6          7           0       -2.699661   -0.294672    0.025536
      7          7           0       -1.382859   -0.698552   -0.001564
      8          7           0        4.376740    0.481324    0.024314
      9          6           0       -3.719402   -1.341108   -0.079801
     10          6           0       -4.990400   -0.531930    0.227527
     11          6           0       -3.239469    0.995170   -0.057332
     12          6           0        0.934845   -0.384902    0.001288
     13          6           0       -0.398552    0.161642    0.029448
     14          6           0        1.445452   -1.673520   -0.053650
     15          6           0        3.133128   -0.207746    0.000241
     16          6           0        2.862717   -1.558540   -0.054169
     17          1           0       -3.721569   -1.765733   -1.088981
     18          1           0       -3.535107   -2.131818    0.648882
     19          1           0       -5.266278   -0.578201    1.283891
     20          1           0       -5.840234   -0.787027   -0.402905
     21          1           0       -0.506055    1.245398    0.074548
     22          1           0        0.854371   -2.574556   -0.088104
     23          1           0        3.601804   -2.342942   -0.089162
 ---------------------------------------------------------------------
 Rotational constants (GHZ):      1.8382048      0.1911473      0.1737074
 Standard basis: LANL2DZ (5D, 7F)
 There are   158 symmetry adapted cartesian basis functions of A   symmetry.
 There are   158 symmetry adapted basis functions of A   symmetry.
   158 basis functions,   428 primitive gaussians,   158 cartesian basis functions
    58 alpha electrons       58 beta electrons
       nuclear repulsion energy      1029.0072363061 Hartrees.
 NAtoms=   23 NActive=   23 NUniq=   23 SFac= 1.00D+00 NAtFMM=   60 NAOKFM=F Big=F
 Integral buffers will be    131072 words long.
 Raffenetti 2 integral format.
 Two-electron integral symmetry is turned on.
 One-electron integrals computed using PRISM.
 PrsmSu:  requested number of processors reduced to:   9 ShMem   1 Linda.
   1 Symmetry operations used in ECPInt.
 ECPInt:  NShTT=    4465 NPrTT=   36515 LenC2=    4015 LenP2D=   19159.
 LDataN:  DoStor=T MaxTD1= 2 Len=   12
 Number of processors reduced to  13 by ecpmxn.
 NBasis=   158 RedAO= T EigKep=  2.17D-03  NBF=   158
 NBsUse=   158 1.00D-06 EigRej= -1.00D+00 NBFU=   158
 Initial guess from the checkpoint file:  "/tmp/scratch/64174.prometeo/Gau-29995.chk"
 B after Tr=     0.000000    0.000000    0.000000
         Rot=    0.999999   -0.000428   -0.000170   -0.001510 Ang=  -0.18 deg.
 ExpMin= 1.15D-01 ExpMax= 7.82D+03 ExpMxC= 2.73D+02 IAcc=2 IRadAn=         4 AccDes= 0.00D+00
 Harris functional with IExCor= 1009 and IRadAn=       4 diagonalized for initial guess.
 HarFok:  IExCor= 1009 AccDes= 0.00D+00 IRadAn=         4 IDoV= 1 UseB2=F ITyADJ=14
 ICtDFT=  3500011 ScaDFX=  1.000000  1.000000  1.000000  1.000000
 FoFCou: FMM=F IPFlag=           0 FMFlag=      100000 FMFlg1=           0
         NFxFlg=           0 DoJE=T BraDBF=F KetDBF=T FulRan=T
         wScrn=  0.000000 ICntrl=     500 IOpCl=  0 I1Cent=   200000004 NGrid=           0
         NMat0=    1 NMatS0=      1 NMatT0=    0 NMatD0=    1 NMtDS0=    0 NMtDT0=    0
 Petite list used in FoFCou.
 Requested convergence on RMS density matrix=1.00D-08 within 128 cycles.
 Requested convergence on MAX density matrix=1.00D-06.
 Requested convergence on             energy=1.00D-06.
 No special actions if energy rises.
 Integral accuracy reduced to 1.0D-05 until final iterations.
 Initial convergence to 1.0D-05 achieved.  Increase integral accuracy.
 SCF Done:  E(RM06) =  -848.637945363     A.U. after   15 cycles
            NFock= 15  Conv=0.71D-08     -V/T= 2.0046
 PrsmSu:  requested number of processors reduced to:   9 ShMem   1 Linda.
   1 Symmetry operations used in ECPInt.
 ECPInt:  NShTT=    4465 NPrTT=   36515 LenC2=    4015 LenP2D=   19159.
 LDataN:  DoStor=T MaxTD1= 3 Len=   28
 Number of processors reduced to  13 by ecpmxn.
 Calling FoFJK, ICntrl=      2127 FMM=F ISym2X=0 I1Cent= 0 IOpClX= 0 NMat=1 NMatS=1 NMatT=0.
 ***** Axes restored to original set *****
 -------------------------------------------------------------------
 Center     Atomic                   Forces (Hartrees/Bohr)
 Number     Number              X              Y              Z
 -------------------------------------------------------------------
      1        8          -0.002678060   -0.001478241   -0.000916538
      2        8          -0.001157341   -0.003736917    0.000122116
      3        8          -0.002550577   -0.001520551   -0.000401869
      4        8           0.004504858   -0.000901979    0.000039770
      5        8           0.003292101   -0.003054392    0.000106138
      6        7          -0.010725960   -0.004161410    0.000410139
      7        7           0.006677578    0.003557048   -0.000164721
      8        7          -0.008889275    0.004716576   -0.000175781
      9        6           0.001743691    0.001011720   -0.000791407
     10        6          -0.001283775    0.001792858    0.000994376
     11        6           0.003301092    0.002527015    0.000761347
     12        6          -0.000913232    0.000937496   -0.000117204
     13        6           0.005472466    0.000674933   -0.000088020
     14        6          -0.000235544   -0.000217513   -0.000028646
     15        6           0.003157140    0.000409015   -0.000024128
     16        6          -0.000926169    0.000650665   -0.000014911
     17        1          -0.000176418   -0.000773597   -0.000143537
     18        1          -0.000325144   -0.000439990    0.000391849
     19        1           0.000834130   -0.000650549    0.000036380
     20        1           0.000314626   -0.000327830   -0.000374233
     21        1           0.000400131    0.000528319    0.000354093
     22        1           0.000064458    0.000335714    0.000028802
     23        1           0.000099224    0.000121609   -0.000004015
 -------------------------------------------------------------------
 Cartesian Forces:  Max     0.010725960 RMS     0.002531596

 GradGradGradGradGradGradGradGradGradGradGradGradGradGradGradGradGradGrad
 Berny optimization.
 Using GEDIIS/GDIIS optimizer.
 FormGI is forming the generalized inverse of G from B-inverse, IUseBI=4.
 GSVD:  received Info=                   1 from GESDD.
 Internal  Forces:  Max     0.012223674 RMS     0.001940740
 Search for a local minimum.
 Step number   2 out of a maximum of  125
 All quantities printed in internal units (Hartrees-Bohrs-Radians)
 Mixed Optimization -- RFO/linear search
 Update second derivatives using D2CorX and points    1    2
 DE= -2.71D-03 DEPred=-3.11D-03 R= 8.73D-01
 TightC=F SS=  1.41D+00  RLast= 1.56D-01 DXNew= 5.0454D-01 4.6758D-01
 Trust test= 8.73D-01 RLast= 1.56D-01 DXMaxT set to 4.68D-01
 ITU=  1  0
 Use linear search instead of GDIIS.
     Eigenvalues ---    0.00507   0.01169   0.01286   0.01410   0.01591
     Eigenvalues ---    0.01591   0.01633   0.01708   0.01912   0.01921
     Eigenvalues ---    0.02004   0.02062   0.02139   0.02191   0.02273
     Eigenvalues ---    0.03006   0.04317   0.04807   0.05406   0.05759
     Eigenvalues ---    0.08041   0.08762   0.11012   0.11408   0.15990
     Eigenvalues ---    0.16000   0.16011   0.21467   0.22447   0.22824
     Eigenvalues ---    0.23295   0.24212   0.24667   0.24733   0.24998
     Eigenvalues ---    0.25000   0.25000   0.25000   0.26906   0.31309
     Eigenvalues ---    0.33998   0.34287   0.34547   0.34806   0.35038
     Eigenvalues ---    0.35191   0.35538   0.36554   0.36663   0.38547
     Eigenvalues ---    0.40103   0.41291   0.42953   0.43340   0.44873
     Eigenvalues ---    0.45145   0.47265   0.48440   0.51647   0.66767
     Eigenvalues ---    0.69035   0.71508   0.94847
 RFO step:  Lambda=-1.16442002D-03 EMin= 5.07234940D-03
 Quartic linear search produced a step of -0.09003.
 Iteration  1 RMS(Cart)=  0.04245939 RMS(Int)=  0.00053028
 Iteration  2 RMS(Cart)=  0.00081548 RMS(Int)=  0.00003967
 Iteration  3 RMS(Cart)=  0.00000019 RMS(Int)=  0.00003967
 Variable       Old X    -DE/DX   Delta X   Delta X   Delta X     New X
                                 (Linear)    (Quad)   (Total)
    R1        2.78457  -0.00006   0.00250  -0.00800  -0.00552   2.77905
    R2        2.62160  -0.00227   0.00128  -0.00880  -0.00751   2.61410
    R3        2.62433  -0.00168   0.00165  -0.00866  -0.00700   2.61732
    R4        2.60361  -0.00258   0.00098  -0.00821  -0.00722   2.59639
    R5        2.31483  -0.00011  -0.00062   0.00185   0.00122   2.31606
    R6        2.41306  -0.00318   0.00269  -0.01261  -0.00992   2.40314
    R7        2.39597  -0.00311   0.00250  -0.01174  -0.00924   2.38673
    R8        2.60331  -0.01222   0.00258  -0.03177  -0.02918   2.57413
    R9        2.76830   0.00020   0.00109  -0.00269  -0.00159   2.76671
   R10        2.64693  -0.00100   0.00006  -0.00244  -0.00235   2.64459
   R11        2.47096  -0.00337  -0.00108  -0.00120  -0.00228   2.46868
   R12        2.68711   0.00133  -0.00244   0.01036   0.00792   2.69503
   R13        2.90591  -0.00004   0.00189  -0.00540  -0.00353   2.90238
   R14        2.06902   0.00017  -0.00006   0.00064   0.00058   2.06960
   R15        2.06159   0.00011  -0.00017   0.00082   0.00065   2.06224
   R16        2.06504   0.00020  -0.00011   0.00087   0.00076   2.06580
   R17        2.05688   0.00010  -0.00010   0.00057   0.00047   2.05736
   R18        2.72373   0.00120  -0.00117   0.00636   0.00520   2.72893
   R19        2.62140   0.00014  -0.00118   0.00418   0.00300   2.62439
   R20        2.05982   0.00055  -0.00131   0.00550   0.00419   2.06401
   R21        2.68704   0.00057  -0.00007   0.00178   0.00171   2.68875
   R22        2.03743  -0.00024  -0.00053   0.00106   0.00053   2.03796
   R23        2.60531  -0.00079  -0.00158   0.00350   0.00192   2.60723
   R24        2.03772  -0.00016  -0.00072   0.00186   0.00114   2.03886
    A1        1.91589   0.00051  -0.00139   0.00783   0.00634   1.92224
    A2        1.84522   0.00157  -0.00031   0.00553   0.00522   1.85044
    A3        2.04265   0.00488   0.00118   0.01410   0.01531   2.05796
    A4        2.26163  -0.00574  -0.00177  -0.01595  -0.01775   2.24388
    A5        1.96630   0.00086   0.00028   0.00400   0.00424   1.97054
    A6        2.12493  -0.00985  -0.00472  -0.02092  -0.02564   2.09930
    A7        2.16337   0.00526   0.00511   0.00307   0.00817   2.17154
    A8        2.03213  -0.00274  -0.00202  -0.00362  -0.00563   2.02650
    A9        2.08768  -0.00252  -0.00309   0.00055  -0.00254   2.08514
   A10        1.75697  -0.00111  -0.00075   0.00098   0.00012   1.75709
   A11        1.92271   0.00024   0.00045  -0.00104  -0.00055   1.92215
   A12        1.93063   0.00045  -0.00008   0.00139   0.00134   1.93196
   A13        1.96780   0.00030  -0.00050   0.00284   0.00240   1.97020
   A14        1.96875   0.00076  -0.00008   0.00486   0.00478   1.97352
   A15        1.91229  -0.00063   0.00084  -0.00820  -0.00737   1.90492
   A16        1.82311   0.00005   0.00038   0.00327   0.00354   1.82665
   A17        1.87585   0.00012   0.00115   0.00010   0.00128   1.87713
   A18        1.87540   0.00030   0.00059   0.00082   0.00143   1.87682
   A19        1.96014   0.00010  -0.00136   0.00332   0.00193   1.96207
   A20        1.98914  -0.00002  -0.00072   0.00112   0.00046   1.98960
   A21        1.93143  -0.00048   0.00019  -0.00802  -0.00782   1.92361
   A22        2.16851   0.00358   0.00003   0.01274   0.01275   2.18126
   A23        1.87144  -0.00024   0.00095  -0.00341  -0.00252   1.86893
   A24        2.24311  -0.00333  -0.00097  -0.00913  -0.01011   2.23300
   A25        2.02663  -0.00009   0.00148  -0.00506  -0.00358   2.02305
   A26        1.91936  -0.00093  -0.00039  -0.00196  -0.00235   1.91701
   A27        2.33720   0.00103  -0.00108   0.00701   0.00593   2.34313
   A28        2.03363   0.00049   0.00221  -0.00491  -0.00269   2.03093
   A29        2.19053  -0.00061  -0.00171   0.00228   0.00057   2.19110
   A30        2.05903   0.00012  -0.00051   0.00263   0.00212   2.06115
   A31        1.86689  -0.00016   0.00030  -0.00045  -0.00016   1.86672
   A32        2.18438  -0.00016  -0.00007  -0.00138  -0.00145   2.18294
   A33        2.23192   0.00032  -0.00022   0.00183   0.00161   2.23353
   A34        2.06451  -0.00003   0.00041  -0.00114  -0.00073   2.06378
   A35        1.94424  -0.00012  -0.00028  -0.00011  -0.00038   1.94386
   A36        2.27444   0.00015  -0.00014   0.00125   0.00111   2.27555
   A37        1.84908  -0.00036   0.00069  -0.00301  -0.00233   1.84675
   A38        2.24510   0.00019  -0.00007   0.00071   0.00065   2.24575
   A39        2.18900   0.00017  -0.00062   0.00230   0.00168   2.19068
    D1       -0.35444   0.00003  -0.00060   0.02580   0.02529  -0.32914
    D2        1.73092   0.00023  -0.00143   0.03132   0.02994   1.76085
    D3       -2.47306  -0.00012  -0.00025   0.02238   0.02218  -2.45088
    D4       -2.99354   0.00031   0.00097  -0.00217  -0.00115  -2.99470
    D5        0.16364  -0.00010  -0.00018  -0.01502  -0.01523   0.14841
    D6        3.14106   0.00000   0.00005  -0.00024  -0.00020   3.14086
    D7       -0.00011   0.00000   0.00004  -0.00001   0.00003  -0.00008
    D8       -3.14119   0.00000  -0.00001   0.00006   0.00005  -3.14114
    D9        0.00001   0.00000   0.00001   0.00013   0.00014   0.00015
   D10        3.09077  -0.00038  -0.00435  -0.01311  -0.01751   3.07326
   D11        0.13326  -0.00065  -0.00235  -0.02953  -0.03184   0.10142
   D12        2.98133   0.00064   0.00068   0.00724   0.00778   2.98911
   D13       -1.22091   0.00051  -0.00010   0.01058   0.01036  -1.21055
   D14        0.89593   0.00016   0.00121   0.00051   0.00163   0.89756
   D15       -0.31375   0.00008  -0.00125   0.01859   0.01737  -0.29638
   D16        1.76720  -0.00005  -0.00204   0.02192   0.01995   1.78714
   D17       -2.39914  -0.00040  -0.00073   0.01186   0.01122  -2.38793
   D18        3.07381   0.00076  -0.00088   0.01404   0.01296   3.08677
   D19       -0.05131   0.00024  -0.00209   0.00020  -0.00194  -0.05326
   D20        0.10984   0.00011   0.00095  -0.00279  -0.00188   0.10796
   D21       -3.01529  -0.00041  -0.00026  -0.01663  -0.01678  -3.03207
   D22        3.13745  -0.00033  -0.00073  -0.00670  -0.00744   3.13001
   D23       -0.00391  -0.00044  -0.00131  -0.00950  -0.01081  -0.01471
   D24        3.14133   0.00001  -0.00001   0.00029   0.00028  -3.14157
   D25        0.00022   0.00000  -0.00004   0.00020   0.00017   0.00039
   D26       -0.00006   0.00002  -0.00002   0.00097   0.00095   0.00089
   D27       -3.14117   0.00001  -0.00005   0.00089   0.00084  -3.14033
   D28        0.38386  -0.00039   0.00114  -0.02667  -0.02553   0.35833
   D29       -1.64369  -0.00061   0.00023  -0.03033  -0.03008  -1.67377
   D30        2.42543  -0.00001   0.00171  -0.02304  -0.02132   2.40410
   D31       -1.66415  -0.00016   0.00125  -0.02723  -0.02598  -1.69013
   D32        2.59149  -0.00038   0.00034  -0.03089  -0.03053   2.56095
   D33        0.37742   0.00022   0.00182  -0.02361  -0.02178   0.35564
   D34        2.44153  -0.00016   0.00058  -0.02236  -0.02180   2.41973
   D35        0.41398  -0.00038  -0.00033  -0.02601  -0.02635   0.38763
   D36       -1.80009   0.00022   0.00115  -0.01873  -0.01759  -1.81769
   D37       -3.14112   0.00000  -0.00027   0.00153   0.00127  -3.13985
   D38        0.00025   0.00011   0.00027   0.00411   0.00437   0.00463
   D39       -0.00009   0.00000  -0.00025   0.00122   0.00097   0.00088
   D40        3.14128   0.00010   0.00028   0.00380   0.00407  -3.13783
   D41        0.00016  -0.00001  -0.00007  -0.00011  -0.00018  -0.00002
   D42        3.14125   0.00002  -0.00002   0.00069   0.00067  -3.14127
   D43       -3.14090   0.00000  -0.00008   0.00019   0.00011  -3.14079
   D44        0.00019   0.00002  -0.00003   0.00099   0.00096   0.00115
   D45       -0.00015   0.00001   0.00007   0.00018   0.00025   0.00011
   D46        3.14155   0.00001   0.00004   0.00017   0.00021  -3.14143
   D47       -3.14121  -0.00001   0.00002  -0.00065  -0.00063   3.14134
   D48        0.00048  -0.00002  -0.00001  -0.00067  -0.00067  -0.00019
   D49        0.00008  -0.00001  -0.00005  -0.00020  -0.00024  -0.00016
   D50        3.14158  -0.00001  -0.00002  -0.00018  -0.00020   3.14137
   D51        3.14122  -0.00001  -0.00003  -0.00012  -0.00014   3.14108
   D52       -0.00047   0.00000   0.00000  -0.00010  -0.00010  -0.00057
         Item               Value     Threshold  Converged?
 Maximum Force            0.012224     0.000450     NO 
 RMS     Force            0.001941     0.000300     NO 
 Maximum Displacement     0.188558     0.001800     NO 
 RMS     Displacement     0.042636     0.001200     NO 
 Predicted change in Energy=-6.186328D-04
 GradGradGradGradGradGradGradGradGradGradGradGradGradGradGradGradGradGrad

                          Input orientation:                          
 ---------------------------------------------------------------------
 Center     Atomic      Atomic             Coordinates (Angstroms)
 Number     Number       Type             X           Y           Z
 ---------------------------------------------------------------------
      1          8           0        4.566460    0.915765    0.059200
      2          8           0       -1.943799    0.515323   -0.022932
      3          8           0        2.544438    2.042779    0.086120
      4          8           0       -5.399972   -0.217109   -0.006575
      5          8           0       -4.340360    1.758389   -0.059115
      6          7           0        2.695449   -0.310205   -0.015872
      7          7           0        1.401270   -0.734452    0.009034
      8          7           0       -4.347110    0.495877   -0.024592
      9          6           0        3.749883   -1.319524    0.098025
     10          6           0        4.992541   -0.467636   -0.200305
     11          6           0        3.185707    0.999070    0.046728
     12          6           0       -0.914516   -0.411096    0.002018
     13          6           0        0.423584    0.131736   -0.012261
     14          6           0       -1.438423   -1.696819    0.035447
     15          6           0       -3.109251   -0.212087   -0.004654
     16          6           0       -2.855376   -1.567739    0.031214
     17          1           0        3.757268   -1.744681    1.107290
     18          1           0        3.596582   -2.120838   -0.626756
     19          1           0        5.297299   -0.527610   -1.248426
     20          1           0        5.839793   -0.677423    0.450414
     21          1           0        0.537890    1.217686   -0.036816
     22          1           0       -0.854796   -2.603361    0.059890
     23          1           0       -3.603228   -2.345157    0.051311
 ---------------------------------------------------------------------
                    Distance matrix (angstroms):
                    1          2          3          4          5
     1  O    0.000000
     2  O    6.523080   0.000000
     3  O    2.315050   4.742287   0.000000
     4  O   10.030828   3.532968   8.260106   0.000000
[...]
                    6          7          8          9         10
     6  N    0.000000
     7  N    1.363692   0.000000
     8  N    7.102682   5.882342   0.000000
     9  C    1.464324   2.423286   8.303030   0.000000
    10  C    2.321895   3.621183   9.419209   1.540624   0.000000
    11  C    1.402120   2.494515   7.586029   2.390558   2.342496
    12  C    3.620453   2.339625   3.552847   4.753595   5.931407
    13  C    2.327646   1.306059   4.786692   3.639453   4.638964
    14  C    4.364068   3.000677   3.643218   5.193696   6.561994
    15  C    5.816406   4.543096   1.427093   6.949123   8.131200
    16  C    5.697394   4.339801   2.545770   6.603014   7.941396
    17  H    2.109942   2.778529   8.475391   1.094773   2.210933
    18  H    2.110900   2.679713   8.382596   1.091811   2.207928
    19  H    2.943817   4.161704   9.867682   2.204607   1.092493
    20  H    3.183347   4.444188  10.253867   2.214310   1.089213
    21  H    2.661933   2.131995   4.938128   4.112707   4.803712
    22  H    4.225507   2.932199   4.669226   4.764892   6.232041
    23  H    6.622319   5.258687   2.935449   7.412360   8.810093
                   11         12         13         14         15
    11  C    0.000000
    12  C    4.361486   0.000000
    13  C    2.922893   1.442889   0.000000
    14  C    5.370886   1.387851   2.608216   0.000000
    15  C    6.441464   2.204761   3.549748   2.234895   0.000000
    16  C    6.586825   2.259401   3.692114   1.422958   1.378027
    17  H    3.033434   4.968639   3.990088   5.268906   7.107148
    18  H    3.200061   4.864101   3.941593   5.095021   6.996933
    19  H    2.947988   6.415707   5.154833   7.019139   8.588107
    20  H    3.145231   6.758564   5.487918   7.335791   8.956891
    21  H    2.696590   2.178417   1.090019   3.517188   3.915022
    22  H    5.423560   2.192226   3.017403   1.077871   3.285699
    23  H    7.587849   3.311147   4.725483   2.258837   2.187967
                   16         17         18         19         20
    16  C    0.000000
    17  H    6.668719   0.000000
    18  H    6.506206   1.778846   0.000000
    19  H    8.387228   3.052758   2.404109   0.000000
    20  H    8.726499   2.418838   2.901207   1.786501   0.000000
    21  H    4.386107   4.546337   4.567542   5.309539   5.654887
    22  H    2.252524   4.754007   4.530309   6.670782   6.945834
    23  H    1.078020   7.417044   7.230601   9.238832   9.568090
                   21         22         23
    21  H    0.000000
    22  H    4.062872   0.000000
    23  H    5.458045   2.759150   0.000000
 Stoichiometry    C8H7N3O5
 Framework group  C1[X(C8H7N3O5)]
 Deg. of freedom    63
 Full point group                 C1      NOp   1
 Largest Abelian subgroup         C1      NOp   1
 Largest concise Abelian subgroup C1      NOp   1
                         Standard orientation:                         
 ---------------------------------------------------------------------
 Center     Atomic      Atomic             Coordinates (Angstroms)
 Number     Number       Type             X           Y           Z
 ---------------------------------------------------------------------
      1          8           0       -4.581954    0.899545   -0.040892
      2          8           0        1.959818    0.521289    0.016694
      3          8           0       -2.576204    2.045901   -0.078138
      4          8           0        5.412639   -0.228023    0.002455
      5          8           0        4.353721    1.757874    0.045544
      6          7           0       -2.693382   -0.309397    0.007692
      7          7           0       -1.392405   -0.717933   -0.006873
      8          7           0        4.363739    0.493736    0.017842
      9          6           0       -3.734702   -1.335975   -0.069990
     10          6           0       -5.002375   -0.493548    0.168426
     11          6           0       -3.205501    0.995053   -0.037971
     12          6           0        0.925858   -0.402517   -0.002903
     13          6           0       -0.410047    0.142617    0.007805
     14          6           0        1.446851   -1.688595   -0.029367
     15          6           0        3.122167   -0.209717    0.002096
     16          6           0        2.864260   -1.563098   -0.026217
     17          1           0       -3.719983   -1.816669   -1.053476
     18          1           0       -3.579501   -2.096796    0.697548
     19          1           0       -5.375193   -0.576672    1.191968
     20          1           0       -5.804787   -0.703984   -0.537433
     21          1           0       -0.519643    1.226976    0.025054
     22          1           0        0.861258   -2.593313   -0.048664
     23          1           0        3.608966   -2.342383   -0.042202
 ---------------------------------------------------------------------
 Rotational constants (GHZ):      1.8383694      0.1927812      0.1749597

 **********************************************************************

            Population analysis using the SCF density.

 **********************************************************************

 Orbital symmetries:
       Occupied  (A) (A) (A) (A) (A) (A) (A) (A) (A) (A) (A) (A)
                 (A) (A) (A) (A) (A) (A) (A) (A) (A) (A) (A) (A)
                 (A) (A) (A) (A) (A) (A) (A) (A) (A) (A) (A) (A)
                 (A) (A) (A) (A) (A) (A) (A) (A) (A) (A) (A) (A)
                 (A) (A) (A) (A) (A) (A) (A) (A) (A) (A)
       Virtual   (A) (A) (A) (A) (A) (A) (A) (A) (A) (A) (A) (A)
                 (A) (A) (A) (A) (A) (A) (A) (A) (A) (A) (A) (A)
                 (A) (A) (A) (A) (A) (A) (A) (A) (A) (A) (A) (A)
                 (A) (A) (A) (A) (A) (A) (A) (A) (A) (A) (A) (A)
                 (A) (A) (A) (A) (A) (A) (A) (A) (A) (A) (A) (A)
                 (A) (A) (A) (A) (A) (A) (A) (A) (A) (A) (A) (A)
                 (A) (A) (A) (A) (A) (A) (A) (A) (A) (A) (A) (A)
                 (A) (A) (A) (A) (A) (A) (A) (A) (A) (A) (A) (A)
                 (A) (A) (A) (A)
 The electronic state is 1-A.
 Alpha  occ. eigenvalues --  -19.34040 -19.29719 -19.27420 -19.27079 -19.24701
 Alpha  occ. eigenvalues --  -14.65159 -14.51178 -14.49424 -10.45278 -10.39011
 Alpha  occ. eigenvalues --  -10.37043 -10.35617 -10.33920 -10.33529 -10.31561
 Alpha  occ. eigenvalues --  -10.30278  -1.25612  -1.19793  -1.18042  -1.09696
 Alpha  occ. eigenvalues --   -1.08338  -1.07603  -0.92826  -0.87939  -0.86113
 Alpha  occ. eigenvalues --   -0.81899  -0.77626  -0.71203  -0.70479  -0.67305
 Alpha  occ. eigenvalues --   -0.61032  -0.60653  -0.58226  -0.57387  -0.56976
 Alpha  occ. eigenvalues --   -0.56352  -0.54876  -0.52664  -0.52033  -0.50761
 Alpha  occ. eigenvalues --   -0.48836  -0.48154  -0.47485  -0.47026  -0.46681
 Alpha  occ. eigenvalues --   -0.45829  -0.43172  -0.41551  -0.40836  -0.35560
 Alpha  occ. eigenvalues --   -0.34582  -0.34013  -0.32920  -0.32722  -0.32379
 Alpha  occ. eigenvalues --   -0.30949  -0.30540  -0.26519
 Alpha virt. eigenvalues --   -0.12048  -0.06975   0.00631   0.02321   0.03920
 Alpha virt. eigenvalues --    0.06110   0.08276   0.10064   0.10780   0.12236
 Alpha virt. eigenvalues --    0.13440   0.13632   0.14668   0.14964   0.15326
 Alpha virt. eigenvalues --    0.15813   0.17156   0.19056   0.19784   0.20382
 Alpha virt. eigenvalues --    0.21966   0.23198   0.24200   0.25764   0.25989
 Alpha virt. eigenvalues --    0.26814   0.27449   0.28505   0.29755   0.30369
 Alpha virt. eigenvalues --    0.30928   0.31755   0.32173   0.33403   0.33839
 Alpha virt. eigenvalues --    0.34595   0.35211   0.35652   0.37024   0.38874
 Alpha virt. eigenvalues --    0.39530   0.40165   0.40864   0.42520   0.43909
 Alpha virt. eigenvalues --    0.45119   0.45742   0.47713   0.48288   0.52916
 Alpha virt. eigenvalues --    0.55721   0.57698   0.58214   0.58942   0.59781
 Alpha virt. eigenvalues --    0.60565   0.61528   0.64245   0.65542   0.66855
 Alpha virt. eigenvalues --    0.67831   0.70201   0.70382   0.74642   0.76907
 Alpha virt. eigenvalues --    0.78607   0.79655   0.81083   0.81606   0.83601
 Alpha virt. eigenvalues --    0.84497   0.86515   0.87849   0.88572   0.89372
 Alpha virt. eigenvalues --    0.92820   0.93504   0.97213   0.99491   1.02389
 Alpha virt. eigenvalues --    1.03672   1.05616   1.06819   1.08913   1.12306
 Alpha virt. eigenvalues --    1.14127   1.16226   1.16621   1.22569   1.35446
 Alpha virt. eigenvalues --    1.38884   1.43179   1.56215   1.58999   1.74792
 Alpha virt. eigenvalues --    1.79264   1.85128   1.96414   1.97985   2.01982
          Condensed to atoms (all electrons):
               1          2          3          4          5          6
     1  O    8.058845   0.000000  -0.060476   0.000000   0.000000  -0.071349
     2  O    0.000000   7.829657   0.000011   0.002228   0.003744  -0.000115
     3  O   -0.060476   0.000011   7.820206   0.000000   0.000000  -0.049328
     4  O    0.000000   0.002228   0.000000   8.200503  -0.117221   0.000000
     5  O    0.000000   0.003744   0.000000  -0.117221   8.157686   0.000000
     6  N   -0.071349  -0.000115  -0.049328   0.000000   0.000000   7.175507
     7  N    0.010050  -0.000384   0.007899   0.000000   0.000000   0.090859
     8  N    0.000000  -0.026816   0.000000   0.260609   0.275224   0.000000
     9  C   -0.020913   0.000005   0.002082   0.000000   0.000000   0.193632
    10  C    0.225022   0.000000  -0.000245   0.000000   0.000000  -0.005642
    11  C    0.233005   0.000025   0.572209   0.000000   0.000000   0.202272
    12  C    0.000017   0.313957   0.001231   0.002302   0.002773  -0.000883
    13  C   -0.001535  -0.032882   0.011770   0.000020   0.000111  -0.120483
    14  C   -0.000004  -0.091767  -0.000117   0.000001  -0.000498  -0.000210
    15  C    0.000000   0.345127   0.000014  -0.122234  -0.105578  -0.000127
    16  C    0.000000  -0.071986  -0.000001   0.032241   0.011367   0.000024
    17  H    0.000637   0.000000   0.000000   0.000000   0.000000  -0.048310
    18  H    0.001630   0.000000  -0.000061   0.000000   0.000000  -0.035875
    19  H   -0.044971   0.000000   0.000062   0.000000   0.000000  -0.002208
    20  H   -0.036256   0.000000  -0.000065   0.000000   0.000000   0.000682
    21  H   -0.000210  -0.000316  -0.003878   0.000000   0.000003  -0.017235
    22  H    0.000000   0.002936   0.000000  -0.000003   0.000001   0.000092
    23  H    0.000000   0.002313   0.000000  -0.001112  -0.000014   0.000000
               7          8          9         10         11         12
     1  O    0.010050   0.000000  -0.020913   0.225022   0.233005   0.000017
     2  O   -0.000384  -0.026816   0.000005   0.000000   0.000025   0.313957
     3  O    0.007899   0.000000   0.002082  -0.000245   0.572209   0.001231
     4  O    0.000000   0.260609   0.000000   0.000000   0.000000   0.002302
     5  O    0.000000   0.275224   0.000000   0.000000   0.000000   0.002773
     6  N    0.090859   0.000000   0.193632  -0.005642   0.202272  -0.000883
     7  N    6.499580   0.000003  -0.044809   0.008834  -0.081181  -0.066269
     8  N    0.000003   6.387618   0.000000   0.000000   0.000000  -0.008361
     9  C   -0.044809   0.000000   5.444986   0.194304  -0.138055   0.000282
    10  C    0.008834   0.000000   0.194304   5.261664  -0.075586   0.000014
    11  C   -0.081181   0.000000  -0.138055  -0.075586   4.831233  -0.000697
    12  C   -0.066269  -0.008361   0.000282   0.000014  -0.000697   4.920444
    13  C    0.582359   0.000207  -0.001243  -0.000558  -0.016248   0.243132
    14  C    0.022818   0.000759  -0.000275   0.000031   0.000375   0.463428
    15  C   -0.000249  -0.034855   0.000003   0.000000   0.000013  -0.163797
    16  C    0.001212   0.035089  -0.000005   0.000000   0.000003  -0.088755
    17  H    0.000649   0.000000   0.378558  -0.035960   0.003179  -0.000047
    18  H    0.002047   0.000000   0.369607  -0.029441   0.001446  -0.000041
    19  H   -0.000139   0.000000  -0.035975   0.363201   0.003536   0.000000
    20  H   -0.000021   0.000000  -0.024775   0.360523  -0.000645   0.000000
    21  H   -0.037725  -0.000007  -0.000577   0.000138   0.011433  -0.026416
    22  H    0.001241  -0.000012   0.000040   0.000000  -0.000001  -0.010361
    23  H    0.000004  -0.000536   0.000000   0.000000   0.000000   0.003043
              13         14         15         16         17         18
     1  O   -0.001535  -0.000004   0.000000   0.000000   0.000637   0.001630
     2  O   -0.032882  -0.091767   0.345127  -0.071986   0.000000   0.000000
     3  O    0.011770  -0.000117   0.000014  -0.000001   0.000000  -0.000061
     4  O    0.000020   0.000001  -0.122234   0.032241   0.000000   0.000000
     5  O    0.000111  -0.000498  -0.105578   0.011367   0.000000   0.000000
     6  N   -0.120483  -0.000210  -0.000127   0.000024  -0.048310  -0.035875
     7  N    0.582359   0.022818  -0.000249   0.001212   0.000649   0.002047
     8  N    0.000207   0.000759  -0.034855   0.035089   0.000000   0.000000
     9  C   -0.001243  -0.000275   0.000003  -0.000005   0.378558   0.369607
    10  C   -0.000558   0.000031   0.000000   0.000000  -0.035960  -0.029441
    11  C   -0.016248   0.000375   0.000013   0.000003   0.003179   0.001446
    12  C    0.243132   0.463428  -0.163797  -0.088755  -0.000047  -0.000041
    13  C    5.402463  -0.044682  -0.004708  -0.002031   0.000567   0.000525
    14  C   -0.044682   5.266483  -0.092893   0.451482   0.000000   0.000005
    15  C   -0.004708  -0.092893   5.480209   0.405112   0.000000   0.000000
    16  C   -0.002031   0.451482   0.405112   5.180688   0.000000   0.000000
    17  H    0.000567   0.000000   0.000000   0.000000   0.471721  -0.024268
    18  H    0.000525   0.000005   0.000000   0.000000  -0.024268   0.459366
    19  H   -0.000019   0.000000   0.000000   0.000000   0.002457  -0.002959
    20  H   -0.000011   0.000000   0.000000   0.000000  -0.003491   0.001241
    21  H    0.303983   0.006689  -0.000272   0.000155  -0.000003   0.000004
    22  H   -0.002430   0.338458   0.003337  -0.021277  -0.000001  -0.000002
    23  H   -0.000136  -0.016016  -0.016007   0.338006   0.000000   0.000000
              19         20         21         22         23
     1  O   -0.044971  -0.036256  -0.000210   0.000000   0.000000
     2  O    0.000000   0.000000  -0.000316   0.002936   0.002313
     3  O    0.000062  -0.000065  -0.003878   0.000000   0.000000
     4  O    0.000000   0.000000   0.000000  -0.000003  -0.001112
     5  O    0.000000   0.000000   0.000003   0.000001  -0.000014
     6  N   -0.002208   0.000682  -0.017235   0.000092   0.000000
     7  N   -0.000139  -0.000021  -0.037725   0.001241   0.000004
     8  N    0.000000   0.000000  -0.000007  -0.000012  -0.000536
     9  C   -0.035975  -0.024775  -0.000577   0.000040   0.000000
    10  C    0.363201   0.360523   0.000138   0.000000   0.000000
    11  C    0.003536  -0.000645   0.011433  -0.000001   0.000000
    12  C    0.000000   0.000000  -0.026416  -0.010361   0.003043
    13  C   -0.000019  -0.000011   0.303983  -0.002430  -0.000136
    14  C    0.000000   0.000000   0.006689   0.338458  -0.016016
    15  C    0.000000   0.000000  -0.000272   0.003337  -0.016007
    16  C    0.000000   0.000000   0.000155  -0.021277   0.338006
    17  H    0.002457  -0.003491  -0.000003  -0.000001   0.000000
    18  H   -0.002959   0.001241   0.000004  -0.000002   0.000000
    19  H    0.502797  -0.031994   0.000000   0.000000   0.000000
    20  H   -0.031994   0.491956   0.000000   0.000000   0.000000
    21  H    0.000000   0.000000   0.456216  -0.000012   0.000001
    22  H    0.000000   0.000000  -0.000012   0.420096  -0.000297
    23  H    0.000000   0.000000   0.000001  -0.000297   0.413516
 Mulliken charges:
               1
     1  O   -0.293492
     2  O   -0.275738
     3  O   -0.301312
     4  O   -0.257334
     5  O   -0.227599
     6  N   -0.311302
     7  N    0.003222
     8  N    0.111076
     9  C   -0.316871
    10  C   -0.266297
    11  C    0.453685
    12  C    0.415005
    13  C   -0.318169
    14  C   -0.304068
    15  C    0.306904
    16  C   -0.271325
    17  H    0.254311
    18  H    0.256776
    19  H    0.246215
    20  H    0.242857
    21  H    0.308028
    22  H    0.268196
    23  H    0.277233
 Sum of Mulliken charges =   0.00000
 Mulliken charges with hydrogens summed into heavy atoms:
               1
     1  O   -0.293492
     2  O   -0.275738
     3  O   -0.301312
     4  O   -0.257334
     5  O   -0.227599
     6  N   -0.311302
     7  N    0.003222
     8  N    0.111076
     9  C    0.194216
    10  C    0.222775
    11  C    0.453685
    12  C    0.415005
    13  C   -0.010141
    14  C   -0.035872
    15  C    0.306904
    16  C    0.005908
 Electronic spatial extent (au):  <R**2>=           5608.4978
 Charge=              0.0000 electrons
 Dipole moment (field-independent basis, Debye):
    X=             -7.2104    Y=             -7.8022    Z=              0.2470  Tot=             10.6266
 Quadrupole moment (field-independent basis, Debye-Ang):
   XX=           -102.3404   YY=            -95.9774   ZZ=            -87.8335
   XY=              7.3869   XZ=             -1.7245   YZ=              0.3953
 Traceless Quadrupole moment (field-independent basis, Debye-Ang):
   XX=             -6.9566   YY=             -0.5936   ZZ=              7.5502
   XY=              7.3869   XZ=             -1.7245   YZ=              0.3953
 Octapole moment (field-independent basis, Debye-Ang**2):
  XXX=           -287.9134  YYY=            -33.6823  ZZZ=              0.5799  XYY=             10.9096
  XXY=           -117.4749  XXZ=              5.5161  XZZ=             -3.7622  YZZ=              6.3904
  YYZ=              0.4405  XYZ=             -1.6881
 Hexadecapole moment (field-independent basis, Debye-Ang**3):
 XXXX=          -6786.6996 YYYY=           -736.1593 ZZZZ=            -93.1993 XXXY=            221.6784
 XXXZ=            -33.4862 YYYX=              7.3252 YYYZ=              0.9447 ZZZX=             -1.3174
 ZZZY=              0.0260 XXYY=          -1240.9490 XXZZ=           -988.5621 YYZZ=           -138.2709
 XXYZ=              3.6972 YYXZ=             -4.3178 ZZXY=             18.7730
 N-N= 1.031181509137D+03 E-N=-4.047854535129D+03  KE= 8.448501924370D+02
 1\1\GINC-NODE045\FOpt\RM06\LANL2DZ\C8H7N3O5\SUPERCOMPUTO1\21-Jul-2020\
 0\\#opt M06/lanl2dz integral=ultrafine geom=connectivity\\Title Card R
 equired\\0,1\O,4.5826045842,0.9171348254,0.0249294339\O,-1.9580511234,
 0.5184582286,-0.0205288235\O,2.5734012014,2.0576034622,0.0563410211\O,
 -5.4085333148,-0.2412752474,0.0042693727\O,-4.3557733709,1.7474663389,
 -0.0553443929\N,2.6976837387,-0.2979078431,-0.0118312189\N,1.397987103
 4,-0.7102964931,0.00766658\N,-4.3618751422,0.483549153,-0.0180636109\C
 ,3.7422548122,-1.3206801175,0.0721419656\C,5.0070045885,-0.4762109325,
 -0.174437125\C,3.2058619329,1.0084099559,0.0232346067\C,-0.9212354944,
 -0.4020070846,0.0045941466\C,0.4129746298,0.1471113499,-0.0121307024\C
 ,-1.4382431187,-1.6894348974,0.0415263769\C,-3.1181305766,-0.215965613
 3,0.0012466125\C,-2.8560337182,-1.5682988869,0.0394333135\H,3.73038041
 93,-1.793957385,1.0592565734\H,3.5883193977,-2.0877606542,-0.689397120
 1\H,5.3786499724,-0.5659417106,-1.1978474508\H,5.8110407861,-0.6788434
 65,0.531857093\H,0.5192197233,1.2316381591,-0.0377395439\H,-0.84985140
 73,-2.5921866438,0.0668384955\H,-3.5983226232,-2.3497134986,0.06236939
 7\\Version=ES64L-G09RevD.01\State=1-A\HF=-848.6385682\RMSD=4.328e-09\R
 MSF=1.125e-05\Dipole=2.8460517,-3.0615697,-0.0779602\Quadrupole=-5.141
 8695,-0.4791297,5.6209992,-5.5162561,-1.2245147,-0.2439757\PG=C01 [X(C
 8H7N3O5)]\\@


 HONESTY IN A LAWYER IS LIKE A HEN'S HIND LEGS.
  -- MAGNUS OLESON, LAKE WOBEGON PATRIARCH, C.1875
 Job cpu time:       0 days  1 hours  8 minutes 26.7 seconds.
 File lengths (MBytes):  RWF=     18 Int=      0 D2E=      0 Chk=      3 Scr=      1
 Normal termination of Gaussian 09 at Tue Jul 21 03:51:30 2020.
