 Entering Gaussian System, Link 0=g09
 Input=lomefloxacina.gjf
 Output=lomefloxacina.log
 Initial command:
 /usr/local/cluster_programs/g09/l1.exe "/tmp/scratch/64650.prometeo/Gau-12419.inp" -scrdir="/tmp/scratch/64650.prometeo/"
 Entering Link 1 = /usr/local/cluster_programs/g09/l1.exe PID=     12420.
  
 Copyright (c) 1988,1990,1992,1993,1995,1998,2003,2009,2013,
            Gaussian, Inc.  All Rights Reserved.
  
 This is part of the Gaussian(R) 09 program.  It is based on
 the Gaussian(R) 03 system (copyright 2003, Gaussian, Inc.),
 the Gaussian(R) 98 system (copyright 1998, Gaussian, Inc.),
 the Gaussian(R) 94 system (copyright 1995, Gaussian, Inc.),
 the Gaussian 92(TM) system (copyright 1992, Gaussian, Inc.),
 the Gaussian 90(TM) system (copyright 1990, Gaussian, Inc.),
 the Gaussian 88(TM) system (copyright 1988, Gaussian, Inc.),
 the Gaussian 86(TM) system (copyright 1986, Carnegie Mellon
 University), and the Gaussian 82(TM) system (copyright 1983,
 Carnegie Mellon University). Gaussian is a federally registered
 trademark of Gaussian, Inc.
  
 This software contains proprietary and confidential information,
 including trade secrets, belonging to Gaussian, Inc.
  
 This software is provided under written license and may be
 used, copied, transmitted, or stored only in accord with that
 written license.
  
 The following legend is applicable only to US Government
 contracts under FAR:
  
                    RESTRICTED RIGHTS LEGEND
  
 Use, reproduction and disclosure by the US Government is
 subject to restrictions as set forth in subparagraphs (a)
 and (c) of the Commercial Computer Software - Restricted
 Rights clause in FAR 52.227-19.
  
 Gaussian, Inc.
 340 Quinnipiac St., Bldg. 40, Wallingford CT 06492
  
  
 ---------------------------------------------------------------
 Warning -- This program may not be used in any manner that
 competes with the business of Gaussian, Inc. or will provide
 assistance to any competitor of Gaussian, Inc.  The licensee
 of this program is prohibited from giving any competitor of
 Gaussian, Inc. access to this program.  By using this program,
 the user acknowledges that Gaussian, Inc. is engaged in the
 business of creating and licensing software in the field of
 computational chemistry and represents and warrants to the
 licensee that it is not a competitor of Gaussian, Inc. and that
 it will not use this program in any manner prohibited above.
 ---------------------------------------------------------------
  

 Cite this work as:
 Gaussian 09, Revision D.01,
 M. J. Frisch, G. W. Trucks, H. B. Schlegel, G. E. Scuseria, 
 M. A. Robb, J. R. Cheeseman, G. Scalmani, V. Barone, B. Mennucci, 
 G. A. Petersson, H. Nakatsuji, M. Caricato, X. Li, H. P. Hratchian, 
 A. F. Izmaylov, J. Bloino, G. Zheng, J. L. Sonnenberg, M. Hada, 
 M. Ehara, K. Toyota, R. Fukuda, J. Hasegawa, M. Ishida, T. Nakajima, 
 Y. Honda, O. Kitao, H. Nakai, T. Vreven, J. A. Montgomery, Jr., 
 J. E. Peralta, F. Ogliaro, M. Bearpark, J. J. Heyd, E. Brothers, 
 K. N. Kudin, V. N. Staroverov, T. Keith, R. Kobayashi, J. Normand, 
 K. Raghavachari, A. Rendell, J. C. Burant, S. S. Iyengar, J. Tomasi, 
 M. Cossi, N. Rega, J. M. Millam, M. Klene, J. E. Knox, J. B. Cross, 
 V. Bakken, C. Adamo, J. Jaramillo, R. Gomperts, R. E. Stratmann, 
 O. Yazyev, A. J. Austin, R. Cammi, C. Pomelli, J. W. Ochterski, 
 R. L. Martin, K. Morokuma, V. G. Zakrzewski, G. A. Voth, 
 P. Salvador, J. J. Dannenberg, S. Dapprich, A. D. Daniels, 
 O. Farkas, J. B. Foresman, J. V. Ortiz, J. Cioslowski, 
 and D. J. Fox, Gaussian, Inc., Wallingford CT, 2013.
 
 ******************************************
 Gaussian 09:  ES64L-G09RevD.01 24-Apr-2013
                18-Aug-2020 
 ******************************************
 %nprocshared=20
 Will use up to   20 processors via shared memory.
 -----------------------------------------------------
 #opt M06/lanl2dz integral=ultrafine geom=connectivity
 -----------------------------------------------------
 1/14=-1,18=20,19=15,26=4,38=1,57=2/1,3;
 2/9=110,12=2,17=6,18=5,40=1/2;
 3/5=6,6=3,11=2,16=1,25=1,30=1,71=1,74=-54,75=-5/1,2,3;
 4//1;
 5/5=2,38=5/2;
 6/7=2,8=2,9=2,10=2,28=1/1;
 7//1,2,3,16;
 1/14=-1,18=20,19=15,26=4/3(2);
 2/9=110/2;
 99//99;
 2/9=110/2;
 3/5=6,6=3,11=2,16=1,25=1,30=1,71=1,74=-54,75=-5/1,2,3;
 4/5=5,16=3,69=1/1;
 5/5=2,38=5/2;
 7//1,2,3,16;
 1/14=-1,18=20,19=15,26=4/3(-5);
 2/9=110/2;
 6/7=2,8=2,9=2,10=2,19=2,28=1/1;
 99/9=1/99;
 -------------------
 Title Card Required
 -------------------
 Symbolic Z-matrix:
 Charge =  0 Multiplicity = 1
 F                     11.7974  -12.7377  -11.9125 
 F                     12.5237  -8.1918   -10.6183 
 O                     7.6222   -8.5214   -10.7671 
 O                     5.2569   -9.2311   -11.9239 
 O                     4.8122   -11.412   -11.4762 
 N                     13.6235  -10.8167  -11.3451 
 N                     16.4591  -11.3749  -11.3684 
 N                     8.9284   -12.2724  -11.8884 
 C                     15.8563  -10.4062  -12.2906 
 C                     14.5801  -9.7667   -11.7176 
 C                     14.1825  -11.7712  -10.3712 
 C                     15.4955  -12.3664  -10.8965 
 C                     12.2565  -10.5102  -11.2856 
 C                     16.8992  -9.3651   -12.6722 
 C                     11.2931  -11.4967  -11.5876 
 C                     9.8959   -11.2935  -11.5841 
 C                     11.7114  -9.2355   -10.985 
 C                     9.4393   -9.9891   -11.2697 
 C                     10.3632  -8.9836   -10.9915 
 C                     9.2195   -13.708   -12.0853 
 C                     8.0022   -9.63     -11.188 
 C                     7.6075   -11.9329  -11.8735 
 C                     7.103    -10.6896  -11.598 
 C                     9.4293   -14.4523  -10.7743 
 C                     5.6397   -10.5137  -11.6481 
 H                     15.5529  -10.9648  -13.1957 
 H                     14.8414  -9.1293   -10.8515 
 H                     14.1137  -9.1304   -12.4822 
 H                     13.448   -12.5596  -10.1744 
 H                     14.3697  -11.245   -9.4133 
 H                     15.9718  -12.9853  -10.1217 
 H                     15.2664  -13.0273  -11.7466 
 H                     16.9165  -10.8857  -10.5854 
 H                     17.8156  -9.8486   -13.0348 
 H                     16.5121  -8.7006   -13.4562 
 H                     17.169   -8.7416   -11.806 
 H                     9.9655   -8.0059   -10.7247 
 H                     8.3396   -14.1251  -12.5934 
 H                     10.0725  -13.8118  -12.7618 
 H                     6.9184   -12.7473  -12.0957 
 H                     10.3148  -14.1117  -10.2242 
 H                     8.5417   -14.354   -10.1341 
 H                     9.564    -15.5256  -10.9748 
 H                     4.2708   -9.2465   -11.9254 
 

 GradGradGradGradGradGradGradGradGradGradGradGradGradGradGradGradGradGrad
 Berny optimization.
 Initialization pass.
                           ----------------------------
                           !    Initial Parameters    !
                           ! (Angstroms and Degrees)  !
 --------------------------                            --------------------------
 ! Name  Definition              Value          Derivative Info.                !
 --------------------------------------------------------------------------------
 ! R1    R(1,15)                 1.3784         estimate D2E/DX2                !
 ! R2    R(2,17)                 1.3724         estimate D2E/DX2                !
 ! R3    R(3,21)                 1.2452         estimate D2E/DX2                !
 ! R4    R(4,25)                 1.3666         estimate D2E/DX2                !
 ! R5    R(4,44)                 0.9862         estimate D2E/DX2                !
 ! R6    R(5,25)                 1.2334         estimate D2E/DX2                !
 ! R7    R(6,10)                 1.4684         estimate D2E/DX2                !
 ! R8    R(6,11)                 1.4738         estimate D2E/DX2                !
 ! R9    R(6,13)                 1.4022         estimate D2E/DX2                !
 ! R10   R(7,9)                  1.467          estimate D2E/DX2                !
 ! R11   R(7,12)                 1.4609         estimate D2E/DX2                !
 ! R12   R(7,33)                 1.0303         estimate D2E/DX2                !
 ! R13   R(8,16)                 1.4096         estimate D2E/DX2                !
 ! R14   R(8,20)                 1.478          estimate D2E/DX2                !
 ! R15   R(8,22)                 1.3639         estimate D2E/DX2                !
 ! R16   R(9,10)                 1.5382         estimate D2E/DX2                !
 ! R17   R(9,14)                 1.5222         estimate D2E/DX2                !
 ! R18   R(9,26)                 1.106          estimate D2E/DX2                !
 ! R19   R(10,27)                1.1067         estimate D2E/DX2                !
 ! R20   R(10,28)                1.0986         estimate D2E/DX2                !
 ! R21   R(11,12)                1.5343         estimate D2E/DX2                !
 ! R22   R(11,29)                1.0954         estimate D2E/DX2                !
 ! R23   R(11,30)                1.1088         estimate D2E/DX2                !
 ! R24   R(12,31)                1.1001         estimate D2E/DX2                !
 ! R25   R(12,32)                1.1009         estimate D2E/DX2                !
 ! R26   R(13,15)                1.4116         estimate D2E/DX2                !
 ! R27   R(13,17)                1.4186         estimate D2E/DX2                !
 ! R28   R(14,34)                1.0977         estimate D2E/DX2                !
 ! R29   R(14,35)                1.0982         estimate D2E/DX2                !
 ! R30   R(14,36)                1.1008         estimate D2E/DX2                !
 ! R31   R(15,16)                1.4119         estimate D2E/DX2                !
 ! R32   R(16,18)                1.4173         estimate D2E/DX2                !
 ! R33   R(17,19)                1.3715         estimate D2E/DX2                !
 ! R34   R(18,19)                1.3936         estimate D2E/DX2                !
 ! R35   R(18,21)                1.4835         estimate D2E/DX2                !
 ! R36   R(19,37)                1.0887         estimate D2E/DX2                !
 ! R37   R(20,24)                1.5221         estimate D2E/DX2                !
 ! R38   R(20,38)                1.0983         estimate D2E/DX2                !
 ! R39   R(20,39)                1.0936         estimate D2E/DX2                !
 ! R40   R(21,23)                1.4489         estimate D2E/DX2                !
 ! R41   R(22,23)                1.3698         estimate D2E/DX2                !
 ! R42   R(22,40)                1.0897         estimate D2E/DX2                !
 ! R43   R(23,25)                1.4747         estimate D2E/DX2                !
 ! R44   R(24,41)                1.0967         estimate D2E/DX2                !
 ! R45   R(24,42)                1.0988         estimate D2E/DX2                !
 ! R46   R(24,43)                1.1001         estimate D2E/DX2                !
 ! A1    A(25,4,44)            105.4099         estimate D2E/DX2                !
 ! A2    A(10,6,11)            112.5593         estimate D2E/DX2                !
 ! A3    A(10,6,13)            119.3109         estimate D2E/DX2                !
 ! A4    A(11,6,13)            118.9012         estimate D2E/DX2                !
 ! A5    A(9,7,12)             112.3443         estimate D2E/DX2                !
 ! A6    A(9,7,33)             110.2798         estimate D2E/DX2                !
 ! A7    A(12,7,33)            111.689          estimate D2E/DX2                !
 ! A8    A(16,8,20)            124.6192         estimate D2E/DX2                !
 ! A9    A(16,8,22)            119.3083         estimate D2E/DX2                !
 ! A10   A(20,8,22)            115.7203         estimate D2E/DX2                !
 ! A11   A(7,9,10)             112.4123         estimate D2E/DX2                !
 ! A12   A(7,9,14)             109.1282         estimate D2E/DX2                !
 ! A13   A(7,9,26)             107.0761         estimate D2E/DX2                !
 ! A14   A(10,9,14)            112.1771         estimate D2E/DX2                !
 ! A15   A(10,9,26)            106.692          estimate D2E/DX2                !
 ! A16   A(14,9,26)            109.1605         estimate D2E/DX2                !
 ! A17   A(6,10,9)             109.737          estimate D2E/DX2                !
 ! A18   A(6,10,27)            111.5386         estimate D2E/DX2                !
 ! A19   A(6,10,28)            108.3077         estimate D2E/DX2                !
 ! A20   A(9,10,27)            109.5788         estimate D2E/DX2                !
 ! A21   A(9,10,28)            109.497          estimate D2E/DX2                !
 ! A22   A(27,10,28)           108.139          estimate D2E/DX2                !
 ! A23   A(6,11,12)            110.4617         estimate D2E/DX2                !
 ! A24   A(6,11,29)            109.302          estimate D2E/DX2                !
 ! A25   A(6,11,30)            109.1206         estimate D2E/DX2                !
 ! A26   A(12,11,29)           110.8627         estimate D2E/DX2                !
 ! A27   A(12,11,30)           109.5956         estimate D2E/DX2                !
 ! A28   A(29,11,30)           107.4315         estimate D2E/DX2                !
 ! A29   A(7,12,11)            114.3149         estimate D2E/DX2                !
 ! A30   A(7,12,31)            108.8894         estimate D2E/DX2                !
 ! A31   A(7,12,32)            107.1736         estimate D2E/DX2                !
 ! A32   A(11,12,31)           110.3417         estimate D2E/DX2                !
 ! A33   A(11,12,32)           108.6127         estimate D2E/DX2                !
 ! A34   A(31,12,32)           107.2307         estimate D2E/DX2                !
 ! A35   A(6,13,15)            120.2337         estimate D2E/DX2                !
 ! A36   A(6,13,17)            125.4519         estimate D2E/DX2                !
 ! A37   A(15,13,17)           114.2718         estimate D2E/DX2                !
 ! A38   A(9,14,34)            110.7019         estimate D2E/DX2                !
 ! A39   A(9,14,35)            110.5671         estimate D2E/DX2                !
 ! A40   A(9,14,36)            110.9793         estimate D2E/DX2                !
 ! A41   A(34,14,35)           108.9626         estimate D2E/DX2                !
 ! A42   A(34,14,36)           107.7446         estimate D2E/DX2                !
 ! A43   A(35,14,36)           107.7828         estimate D2E/DX2                !
 ! A44   A(1,15,13)            115.4635         estimate D2E/DX2                !
 ! A45   A(1,15,16)            119.4859         estimate D2E/DX2                !
 ! A46   A(13,15,16)           125.0496         estimate D2E/DX2                !
 ! A47   A(8,16,15)            125.3625         estimate D2E/DX2                !
 ! A48   A(8,16,18)            117.7687         estimate D2E/DX2                !
 ! A49   A(15,16,18)           116.8596         estimate D2E/DX2                !
 ! A50   A(2,17,13)            120.8324         estimate D2E/DX2                !
 ! A51   A(2,17,19)            116.3201         estimate D2E/DX2                !
 ! A52   A(13,17,19)           122.8027         estimate D2E/DX2                !
 ! A53   A(16,18,19)           119.6531         estimate D2E/DX2                !
 ! A54   A(16,18,21)           123.1657         estimate D2E/DX2                !
 ! A55   A(19,18,21)           117.1666         estimate D2E/DX2                !
 ! A56   A(17,19,18)           121.3403         estimate D2E/DX2                !
 ! A57   A(17,19,37)           121.5243         estimate D2E/DX2                !
 ! A58   A(18,19,37)           117.0463         estimate D2E/DX2                !
 ! A59   A(8,20,24)            112.7915         estimate D2E/DX2                !
 ! A60   A(8,20,38)            105.8253         estimate D2E/DX2                !
 ! A61   A(8,20,39)            109.1607         estimate D2E/DX2                !
 ! A62   A(24,20,38)           108.8551         estimate D2E/DX2                !
 ! A63   A(24,20,39)           112.264          estimate D2E/DX2                !
 ! A64   A(38,20,39)           107.6164         estimate D2E/DX2                !
 ! A65   A(3,21,18)            121.9874         estimate D2E/DX2                !
 ! A66   A(3,21,23)            123.8711         estimate D2E/DX2                !
 ! A67   A(18,21,23)           114.115          estimate D2E/DX2                !
 ! A68   A(8,22,23)            125.7913         estimate D2E/DX2                !
 ! A69   A(8,22,40)            115.0981         estimate D2E/DX2                !
 ! A70   A(23,22,40)           119.1082         estimate D2E/DX2                !
 ! A71   A(21,23,22)           119.4803         estimate D2E/DX2                !
 ! A72   A(21,23,25)           122.5603         estimate D2E/DX2                !
 ! A73   A(22,23,25)           117.8337         estimate D2E/DX2                !
 ! A74   A(20,24,41)           113.0456         estimate D2E/DX2                !
 ! A75   A(20,24,42)           110.2885         estimate D2E/DX2                !
 ! A76   A(20,24,43)           109.6925         estimate D2E/DX2                !
 ! A77   A(41,24,42)           109.4024         estimate D2E/DX2                !
 ! A78   A(41,24,43)           107.1904         estimate D2E/DX2                !
 ! A79   A(42,24,43)           106.9998         estimate D2E/DX2                !
 ! A80   A(4,25,5)             121.5833         estimate D2E/DX2                !
 ! A81   A(4,25,23)            113.3749         estimate D2E/DX2                !
 ! A82   A(5,25,23)            125.0385         estimate D2E/DX2                !
 ! D1    D(44,4,25,5)            0.8502         estimate D2E/DX2                !
 ! D2    D(44,4,25,23)        -179.7755         estimate D2E/DX2                !
 ! D3    D(11,6,10,9)           57.4756         estimate D2E/DX2                !
 ! D4    D(11,6,10,27)         -64.1491         estimate D2E/DX2                !
 ! D5    D(11,6,10,28)         176.961          estimate D2E/DX2                !
 ! D6    D(13,6,10,9)         -156.0733         estimate D2E/DX2                !
 ! D7    D(13,6,10,27)          82.302          estimate D2E/DX2                !
 ! D8    D(13,6,10,28)         -36.5879         estimate D2E/DX2                !
 ! D9    D(10,6,11,12)         -54.6129         estimate D2E/DX2                !
 ! D10   D(10,6,11,29)        -176.8504         estimate D2E/DX2                !
 ! D11   D(10,6,11,30)          65.9326         estimate D2E/DX2                !
 ! D12   D(13,6,11,12)         158.7852         estimate D2E/DX2                !
 ! D13   D(13,6,11,29)          36.5476         estimate D2E/DX2                !
 ! D14   D(13,6,11,30)         -80.6694         estimate D2E/DX2                !
 ! D15   D(10,6,13,15)         148.6752         estimate D2E/DX2                !
 ! D16   D(10,6,13,17)         -28.8099         estimate D2E/DX2                !
 ! D17   D(11,6,13,15)         -66.9843         estimate D2E/DX2                !
 ! D18   D(11,6,13,17)         115.5307         estimate D2E/DX2                !
 ! D19   D(12,7,9,10)           51.6643         estimate D2E/DX2                !
 ! D20   D(12,7,9,14)          176.779          estimate D2E/DX2                !
 ! D21   D(12,7,9,26)          -65.1894         estimate D2E/DX2                !
 ! D22   D(33,7,9,10)          -73.6356         estimate D2E/DX2                !
 ! D23   D(33,7,9,14)           51.4791         estimate D2E/DX2                !
 ! D24   D(33,7,9,26)          169.5107         estimate D2E/DX2                !
 ! D25   D(9,7,12,11)          -49.3486         estimate D2E/DX2                !
 ! D26   D(9,7,12,31)         -173.2503         estimate D2E/DX2                !
 ! D27   D(9,7,12,32)           71.0637         estimate D2E/DX2                !
 ! D28   D(33,7,12,11)          75.1769         estimate D2E/DX2                !
 ! D29   D(33,7,12,31)         -48.7248         estimate D2E/DX2                !
 ! D30   D(33,7,12,32)        -164.4108         estimate D2E/DX2                !
 ! D31   D(20,8,16,15)           8.4539         estimate D2E/DX2                !
 ! D32   D(20,8,16,18)        -172.6867         estimate D2E/DX2                !
 ! D33   D(22,8,16,15)        -178.6631         estimate D2E/DX2                !
 ! D34   D(22,8,16,18)           0.1963         estimate D2E/DX2                !
 ! D35   D(16,8,20,24)          77.7456         estimate D2E/DX2                !
 ! D36   D(16,8,20,38)        -163.3429         estimate D2E/DX2                !
 ! D37   D(16,8,20,39)         -47.78           estimate D2E/DX2                !
 ! D38   D(22,8,20,24)         -95.367          estimate D2E/DX2                !
 ! D39   D(22,8,20,38)          23.5445         estimate D2E/DX2                !
 ! D40   D(22,8,20,39)         139.1074         estimate D2E/DX2                !
 ! D41   D(16,8,22,23)           0.8055         estimate D2E/DX2                !
 ! D42   D(16,8,22,40)        -178.6169         estimate D2E/DX2                !
 ! D43   D(20,8,22,23)         174.3072         estimate D2E/DX2                !
 ! D44   D(20,8,22,40)          -5.1152         estimate D2E/DX2                !
 ! D45   D(7,9,10,6)           -55.5135         estimate D2E/DX2                !
 ! D46   D(7,9,10,27)           67.2781         estimate D2E/DX2                !
 ! D47   D(7,9,10,28)         -174.2678         estimate D2E/DX2                !
 ! D48   D(14,9,10,6)         -178.9414         estimate D2E/DX2                !
 ! D49   D(14,9,10,27)         -56.1498         estimate D2E/DX2                !
 ! D50   D(14,9,10,28)          62.3042         estimate D2E/DX2                !
 ! D51   D(26,9,10,6)           61.5693         estimate D2E/DX2                !
 ! D52   D(26,9,10,27)        -175.6391         estimate D2E/DX2                !
 ! D53   D(26,9,10,28)         -57.185          estimate D2E/DX2                !
 ! D54   D(7,9,14,34)           52.1696         estimate D2E/DX2                !
 ! D55   D(7,9,14,35)          173.022          estimate D2E/DX2                !
 ! D56   D(7,9,14,36)          -67.4244         estimate D2E/DX2                !
 ! D57   D(10,9,14,34)         177.4211         estimate D2E/DX2                !
 ! D58   D(10,9,14,35)         -61.7265         estimate D2E/DX2                !
 ! D59   D(10,9,14,36)          57.8271         estimate D2E/DX2                !
 ! D60   D(26,9,14,34)         -64.5446         estimate D2E/DX2                !
 ! D61   D(26,9,14,35)          56.3078         estimate D2E/DX2                !
 ! D62   D(26,9,14,36)         175.8614         estimate D2E/DX2                !
 ! D63   D(6,11,12,7)           50.1788         estimate D2E/DX2                !
 ! D64   D(6,11,12,31)         173.2989         estimate D2E/DX2                !
 ! D65   D(6,11,12,32)         -69.429          estimate D2E/DX2                !
 ! D66   D(29,11,12,7)         171.4953         estimate D2E/DX2                !
 ! D67   D(29,11,12,31)        -65.3847         estimate D2E/DX2                !
 ! D68   D(29,11,12,32)         51.8875         estimate D2E/DX2                !
 ! D69   D(30,11,12,7)         -70.0822         estimate D2E/DX2                !
 ! D70   D(30,11,12,31)         53.0378         estimate D2E/DX2                !
 ! D71   D(30,11,12,32)        170.31           estimate D2E/DX2                !
 ! D72   D(6,13,15,1)            0.8698         estimate D2E/DX2                !
 ! D73   D(6,13,15,16)        -178.769          estimate D2E/DX2                !
 ! D74   D(17,13,15,1)         178.6226         estimate D2E/DX2                !
 ! D75   D(17,13,15,16)         -1.0162         estimate D2E/DX2                !
 ! D76   D(6,13,17,2)           -5.0912         estimate D2E/DX2                !
 ! D77   D(6,13,17,19)         177.4343         estimate D2E/DX2                !
 ! D78   D(15,13,17,2)         177.2923         estimate D2E/DX2                !
 ! D79   D(15,13,17,19)         -0.1822         estimate D2E/DX2                !
 ! D80   D(1,15,16,8)            0.1726         estimate D2E/DX2                !
 ! D81   D(1,15,16,18)        -178.6961         estimate D2E/DX2                !
 ! D82   D(13,15,16,8)         179.7979         estimate D2E/DX2                !
 ! D83   D(13,15,16,18)          0.9292         estimate D2E/DX2                !
 ! D84   D(8,16,18,19)        -178.5947         estimate D2E/DX2                !
 ! D85   D(8,16,18,21)           2.8364         estimate D2E/DX2                !
 ! D86   D(15,16,18,19)          0.3627         estimate D2E/DX2                !
 ! D87   D(15,16,18,21)       -178.2062         estimate D2E/DX2                !
 ! D88   D(2,17,19,18)        -176.1448         estimate D2E/DX2                !
 ! D89   D(2,17,19,37)           0.3203         estimate D2E/DX2                !
 ! D90   D(13,17,19,18)          1.4358         estimate D2E/DX2                !
 ! D91   D(13,17,19,37)        177.9009         estimate D2E/DX2                !
 ! D92   D(16,18,19,17)         -1.509          estimate D2E/DX2                !
 ! D93   D(16,18,19,37)       -178.126          estimate D2E/DX2                !
 ! D94   D(21,18,19,17)        177.1445         estimate D2E/DX2                !
 ! D95   D(21,18,19,37)          0.5275         estimate D2E/DX2                !
 ! D96   D(16,18,21,3)         171.871          estimate D2E/DX2                !
 ! D97   D(16,18,21,23)         -6.3246         estimate D2E/DX2                !
 ! D98   D(19,18,21,3)          -6.7311         estimate D2E/DX2                !
 ! D99   D(19,18,21,23)        175.0733         estimate D2E/DX2                !
 ! D100  D(8,20,24,41)         -64.8078         estimate D2E/DX2                !
 ! D101  D(8,20,24,42)          58.023          estimate D2E/DX2                !
 ! D102  D(8,20,24,43)         175.6286         estimate D2E/DX2                !
 ! D103  D(38,20,24,41)        178.0585         estimate D2E/DX2                !
 ! D104  D(38,20,24,42)        -59.1107         estimate D2E/DX2                !
 ! D105  D(38,20,24,43)         58.4948         estimate D2E/DX2                !
 ! D106  D(39,20,24,41)         59.0214         estimate D2E/DX2                !
 ! D107  D(39,20,24,42)       -178.1477         estimate D2E/DX2                !
 ! D108  D(39,20,24,43)        -60.5422         estimate D2E/DX2                !
 ! D109  D(3,21,23,22)        -171.1637         estimate D2E/DX2                !
 ! D110  D(3,21,23,25)           4.6702         estimate D2E/DX2                !
 ! D111  D(18,21,23,22)          6.993          estimate D2E/DX2                !
 ! D112  D(18,21,23,25)       -177.1731         estimate D2E/DX2                !
 ! D113  D(8,22,23,21)          -4.7424         estimate D2E/DX2                !
 ! D114  D(8,22,23,25)         179.2279         estimate D2E/DX2                !
 ! D115  D(40,22,23,21)        174.6589         estimate D2E/DX2                !
 ! D116  D(40,22,23,25)         -1.3708         estimate D2E/DX2                !
 ! D117  D(21,23,25,4)          30.1604         estimate D2E/DX2                !
 ! D118  D(21,23,25,5)        -150.4906         estimate D2E/DX2                !
 ! D119  D(22,23,25,4)        -153.9407         estimate D2E/DX2                !
 ! D120  D(22,23,25,5)          25.4083         estimate D2E/DX2                !
 --------------------------------------------------------------------------------
 Trust Radius=3.00D-01 FncErr=1.00D-07 GrdErr=1.00D-06
 Number of steps in this run=    258 maximum allowed number of steps=    264.
 GradGradGradGradGradGradGradGradGradGradGradGradGradGradGradGradGradGrad

                          Input orientation:                          
 ---------------------------------------------------------------------
 Center     Atomic      Atomic             Coordinates (Angstroms)
 Number     Number       Type             X           Y           Z
 ---------------------------------------------------------------------
      1          9           0       11.797400  -12.737700  -11.912500
      2          9           0       12.523700   -8.191800  -10.618300
      3          8           0        7.622200   -8.521400  -10.767100
      4          8           0        5.256900   -9.231100  -11.923900
      5          8           0        4.812200  -11.412000  -11.476200
      6          7           0       13.623500  -10.816700  -11.345100
      7          7           0       16.459100  -11.374900  -11.368400
      8          7           0        8.928400  -12.272400  -11.888400
      9          6           0       15.856300  -10.406200  -12.290600
     10          6           0       14.580100   -9.766700  -11.717600
     11          6           0       14.182500  -11.771200  -10.371200
     12          6           0       15.495500  -12.366400  -10.896500
     13          6           0       12.256500  -10.510200  -11.285600
     14          6           0       16.899200   -9.365100  -12.672200
     15          6           0       11.293100  -11.496700  -11.587600
     16          6           0        9.895900  -11.293500  -11.584100
     17          6           0       11.711400   -9.235500  -10.985000
     18          6           0        9.439300   -9.989100  -11.269700
     19          6           0       10.363200   -8.983600  -10.991500
     20          6           0        9.219500  -13.708000  -12.085300
     21          6           0        8.002200   -9.630000  -11.188000
     22          6           0        7.607500  -11.932900  -11.873500
     23          6           0        7.103000  -10.689600  -11.598000
     24          6           0        9.429300  -14.452300  -10.774300
     25          6           0        5.639700  -10.513700  -11.648100
     26          1           0       15.552900  -10.964800  -13.195700
     27          1           0       14.841400   -9.129300  -10.851500
     28          1           0       14.113700   -9.130400  -12.482200
     29          1           0       13.448000  -12.559600  -10.174400
     30          1           0       14.369700  -11.245000   -9.413300
     31          1           0       15.971800  -12.985300  -10.121700
     32          1           0       15.266400  -13.027300  -11.746600
     33          1           0       16.916500  -10.885700  -10.585400
     34          1           0       17.815600   -9.848600  -13.034800
     35          1           0       16.512100   -8.700600  -13.456200
     36          1           0       17.169000   -8.741600  -11.806000
     37          1           0        9.965500   -8.005900  -10.724700
     38          1           0        8.339600  -14.125100  -12.593400
     39          1           0       10.072500  -13.811800  -12.761800
     40          1           0        6.918400  -12.747300  -12.095700
     41          1           0       10.314800  -14.111700  -10.224200
     42          1           0        8.541700  -14.354000  -10.134100
     43          1           0        9.564000  -15.525600  -10.974800
     44          1           0        4.270800   -9.246500  -11.925400
 ---------------------------------------------------------------------
                    Distance matrix (angstroms):
                    1          2          3          4          5
     1  F    0.000000
     2  F    4.782015   0.000000
     3  O    6.043296   4.914822   0.000000
     4  O    7.421221   7.455945   2.726995   0.000000
     5  O    7.123262   8.400769   4.093225   2.270356   0.000000
     6  N    2.710503   2.937328   6.451208   8.535170   8.832360
     7  N    4.887199   5.116849   9.305634  11.419008  11.647458
     8  N    2.906587   5.584857   4.127163   4.767670   4.225316
     9  C    4.696118   4.336632   8.583352  10.670642  11.119668
    10  C    4.075322   2.813814   7.132082   9.340850   9.908439
    11  C    2.999738   3.952819   7.331812   9.409002   9.442064
    12  C    3.853059   5.131888   8.762969  10.757071  10.741500
    13  C    2.359138   2.427275   5.069606   7.144083   7.501145
    14  C    6.162787   4.973946   9.508100  11.667093  12.317296
    15  C    1.378390   3.657360   4.795950   6.456141   6.482411
    16  C    2.410241   4.178354   3.677192   5.088151   5.086226
    17  C    3.623956   1.372447   4.156799   6.522432   7.251027
    18  C    3.678129   3.628792   2.389268   4.300583   4.845342
    19  C    4.122916   2.331091   2.788739   5.196626   6.078294
    20  C    2.759875   6.595323   5.584786   5.980876   5.006687
    21  C    4.958452   4.778801   1.245211   2.870077   3.665335
    22  C    4.266672   6.303997   3.586456   3.581562   2.871043
    23  C    5.131376   6.048372   2.379297   2.375188   2.405091
    24  C    3.137395   6.985235   6.200100   6.781698   5.572585
    25  C    6.552355   7.337654   2.945459   1.366625   1.233389
    26  H    4.346672   4.848564   8.646635  10.518118  10.886657
    27  H    4.838616   2.510980   7.245241   9.644846  10.304651
    28  H    4.324629   2.623584   6.741811   8.874950   9.629934
    29  H    2.403579   4.486541   7.113248   9.012979   8.808445
    30  H    3.884698   3.765869   7.401319   9.664473   9.779021
    31  H    4.549053   5.925677   9.489930  11.495696  11.351062
    32  H    3.485018   5.672524   8.927281  10.706664  10.581711
    33  H    5.603239   5.153142   9.592025  11.852238  12.148440
    34  H    6.769430   6.048856  10.526601  12.622850  13.189460
    35  H    6.396060   4.921371   9.289440  11.371407  12.172089
    36  H    6.695838   4.826150   9.605685  11.922736  12.646356
    37  H    5.211205   2.567152   2.399707   5.010999   6.222762
    38  H    3.787464   7.524079   5.937296   5.822586   4.588202
    39  H    2.202335   6.495181   6.162072   6.698872   5.923054
    40  H    4.882448   7.372563   4.485392   3.892783   2.569608
    41  H    2.633692   6.330859   6.228667   7.231292   6.255757
    42  H    4.046568   7.352787   5.938467   6.343296   4.936169
    43  H    3.693202   7.916536   7.271351   7.685872   6.304975
    44  H    8.296888   8.422070   3.619297   0.986221   2.276902
                    6          7          8          9         10
     6  N    0.000000
     7  N    2.890114   0.000000
     8  N    4.945523   7.601799   0.000000
     9  C    2.459243   1.467038   7.186116   0.000000
    10  C    1.468448   2.497777   6.184611   1.538173   0.000000
    11  C    1.473782   2.516817   5.491690   2.889451   2.447223
    12  C    2.471274   1.460920   6.642251   2.432298   2.875866
    13  C    1.402202   4.291434   3.813786   3.738904   2.477606
    14  C    3.820805   2.435750   8.520586   1.522218   2.539836
    15  C    2.439666   5.172083   2.506790   4.744069   3.716742
    16  C    3.765563   6.567248   1.409574   6.067356   4.928557
    17  C    2.507188   5.221559   4.217106   4.500592   3.008042
    18  C    4.265927   7.155961   2.420179   6.511075   5.165065
    19  C    3.756973   6.558991   3.698552   5.821134   4.350024
    20  C    5.320031   7.639968   1.477991   7.415601   6.663714
    21  C    5.747343   8.636919   2.886292   7.969009   6.600601
    22  C    6.141446   8.883542   1.363913   8.399255   7.303005
    23  C    6.526640   9.383974   2.433449   8.785230   7.534791
    24  C    5.579849   7.696846   2.498816   7.744444   7.026763
    25  C    7.995291  10.857224   3.737154  10.237347   8.971822
    26  H    2.677543   2.080482   6.877707   1.106025   2.136952
    27  H    2.138747   2.815468   6.776268   2.175202   1.106655
    28  H    2.092104   3.432089   6.091970   2.168186   1.098645
    29  H    2.106903   3.449039   4.842217   3.862039   3.385765
    30  H    2.114736   2.864417   6.065428   3.345507   2.745804
    31  H    3.422579   2.094066   7.296502   3.371828   3.852676
    32  H    2.783357   2.072678   6.384374   2.741183   3.332171
    33  H    3.380200   1.030350   8.211607   2.064377   2.827155
    34  H    4.622338   2.635635   9.282853   2.168780   3.494307
    35  H    4.156757   3.393169   8.528086   2.167434   2.809257
    36  H    4.133889   2.762195   8.965535   2.174606   2.785866
    37  H    4.654724   7.343797   4.542334   6.550955   5.037936
    38  H    6.357937   8.659706   2.067899   8.391822   7.662018
    39  H    4.856672   6.976296   2.107497   6.728483   6.145864
    40  H    7.017762   9.666302   2.075718   9.241471   8.229738
    41  H    4.802180   6.822880   2.841600   6.979181   6.269135
    42  H    6.309018   8.548904   2.749575   8.587141   7.746810
    43  H    6.228194   8.057645   3.438308   8.217824   7.673196
    44  H    9.501330  12.385273   5.554339  11.649124  10.324508
                   11         12         13         14         15
    11  C    0.000000
    12  C    1.534331   0.000000
    13  C    2.477039   3.753398   0.000000
    14  C    4.297020   3.759160   4.978813   0.000000
    15  C    3.147000   4.346742   1.411569   6.094951   0.000000
    16  C    4.480431   5.742772   2.505014   7.344991   1.411903
    17  C    3.593447   4.912207   1.418575   5.456804   2.377210
    18  C    5.145982   6.516778   2.865033   7.616199   2.410496
    19  C    4.768914   6.147590   2.449814   6.759408   2.745127
    20  C    5.596490   6.526968   4.482055   8.842116   3.072030
    21  C    6.591510   7.982631   4.345497   9.023837   3.804507
    22  C    6.746383   7.960088   4.897234   9.673014   3.722319
    23  C    7.265963   8.587073   5.166076   9.943528   4.267137
    24  C    5.472083   6.415972   4.877975   9.234773   3.587587
    25  C    8.728758  10.056550   6.626723  11.364172   5.738543
    26  H    3.241308   2.693343   3.836847   2.155369   4.584190
    27  H    2.764864   3.302830   2.962606   2.757733   4.328609
    28  H    3.381550   3.859470   2.604782   2.801820   3.788861
    29  H    1.095352   2.179681   2.618106   5.324905   2.787559
    30  H    1.108829   2.173671   2.917371   4.533522   3.775765
    31  H    2.176668   1.100097   4.613484   4.524486   5.123966
    32  H    2.155076   1.100884   3.950672   4.115152   4.260884
    33  H    2.881796   2.075692   4.727249   2.582103   5.744593
    34  H    4.898017   4.036646   5.865237   1.097743   6.881397
    35  H    4.936886   4.585153   5.108453   1.098209   6.208688
    36  H    4.489578   4.094749   5.247039   1.100839   6.493418
    37  H    5.664410   7.044457   3.440176   7.329146   3.833119
    38  H    6.679708   7.561706   5.488164   9.794415   4.079618
    39  H    5.174081   5.914174   4.224877   8.147699   2.868501
    40  H    7.529530   8.668899   5.844330  10.554051   4.578227
    41  H    4.523124   5.507968   4.227005   8.478045   3.107114
    42  H    6.208518   7.272355   5.468134  10.058771   4.224574
    43  H    5.982507   6.720816   5.700911   9.728211   4.426889
    44  H   10.345600  11.695568   8.110344  12.651018   7.381748
                   16         17         18         19         20
    16  C    0.000000
    17  C    2.808972   0.000000
    18  C    1.417318   2.410686   0.000000
    19  C    2.430058   1.371546   1.393563   0.000000
    20  C    2.557055   5.236743   3.813625   4.982409   0.000000
    21  C    2.551515   3.735640   1.483538   2.455762   4.349374
    22  C    2.393608   4.990731   2.738325   4.131607   2.407153
    23  C    2.857478   4.871091   2.461052   3.729233   3.718571
    24  C    3.294163   5.698015   4.490621   5.552119   1.522077
    25  C    4.327519   6.240115   3.854264   5.008371   4.817641
    26  H    5.891260   4.757604   6.483639   5.976340   6.990715
    27  H    5.447792   3.134645   5.486058   4.482756   7.354761
    28  H    4.824461   2.832613   4.904848   4.038562   6.713058
    29  H    4.025876   3.836990   4.886392   4.792851   4.780227
    30  H    4.972888   3.684412   5.415935   4.863814   6.303215
    31  H    6.474362   5.740844   7.277958   6.944534   7.069058
    32  H    5.645772   5.253171   6.588868   6.400239   6.094511
    33  H    7.102994   5.475026   7.561791   6.835835   8.334200
    34  H    8.180093   6.468294   8.561409   7.775704   9.470452
    35  H    7.348605   5.425833   7.514354   6.630521   8.951840
    36  H    7.710993   5.541063   7.848066   6.858636   9.377510
    37  H    3.398783   2.151241   2.122968   1.088689   5.909458
    38  H    3.385072   6.153387   4.479734   5.752918   1.098345
    39  H    2.785678   5.175474   4.152149   5.150727   1.093634
    40  H    3.352727   6.044770   3.826863   5.220282   2.493615
    41  H    3.157065   5.128999   4.342281   5.185412   2.196895
    42  H    3.647330   6.080302   4.598655   5.735346   2.164234
    43  H    4.288598   6.646562   5.545750   6.590657   2.157675
    44  H    5.995702   7.499800   5.262584   6.169167   6.664847
                   21         22         23         24         25
    21  C    0.000000
    22  C    2.434963   0.000000
    23  C    1.448935   1.369750   0.000000
    24  C    5.046022   3.297662   4.499785   0.000000
    25  C    2.563986   2.436631   1.474686   5.535085   0.000000
    26  H    7.926261   8.112633   8.604022   7.451464  10.043410
    27  H    6.865755   7.825213   7.929353   7.591516   9.339294
    28  H    6.266976   7.110215   7.236216   7.292678   8.626582
    29  H    6.266313   6.114829   6.766281   4.482426   8.205306
    30  H    6.804619   7.228633   7.608305   6.045382   9.041130
    31  H    8.712609   8.610335   9.279295   6.736637  10.732707
    32  H    8.038799   7.737736   8.492822   6.086685   9.949937
    33  H    9.022453   9.455861   9.867553   8.295450  11.332870
    34  H    9.988057  10.483236  10.841193   9.830256  12.272646
    35  H    8.855897   9.604405   9.794906   9.510031  11.169854
    36  H    9.230460  10.080240  10.254868   9.673647  11.665763
    37  H    2.589767   4.722418   4.019802   6.468852   5.084710
    38  H    4.721749   2.420737   3.784529   2.145607   4.607088
    39  H    4.924474   3.224216   4.463238   2.184972   5.636267
    40  H    3.422879   1.089715   2.125067   3.310248   2.612353
    41  H    5.134459   3.846665   4.890169   1.096690   6.068744
    42  H    4.870107   3.124095   4.200082   1.098796   5.045959
    43  H    6.102686   4.188442   5.461849   1.100144   6.400985
    44  H    3.822849   4.284041   3.195479   7.418592   1.885889
                   26         27         28         29         30
    26  H    0.000000
    27  H    3.061138   0.000000
    28  H    2.438320   1.785702   0.000000
    29  H    4.012760   3.763906   4.186706   0.000000
    30  H    3.973037   2.601366   3.735668   1.776788   0.000000
    31  H    3.702347   4.084011   4.887203   2.559993   2.469251
    32  H    2.536903   4.021969   4.129849   2.448905   3.070009
    33  H    2.946070   2.731628   3.812429   3.873158   2.826501
    34  H    2.528162   3.758997   3.811199   5.882800   5.190320
    35  H    2.472757   3.124017   2.624067   5.920372   5.235350
    36  H    3.079880   2.545408   3.153295   5.575400   4.452876
    37  H    6.788223   5.005248   4.643368   5.759064   5.622145
    38  H    7.898225   8.382460   7.635419   5.864989   7.400684
    39  H    6.190998   6.951076   6.190717   4.433581   6.022196
    40  H    8.884925   8.798403   8.062487   6.808987   8.060648
    41  H    6.794887   6.760763   6.659096   3.496918   5.031674
    42  H    8.367616   8.215739   7.990416   5.224297   6.644623
    43  H    7.848581   8.293299   7.991909   4.952096   6.622429
    44  H   11.482682  10.625657   9.859320   9.912801  10.596812
                   31         32         33         34         35
    31  H    0.000000
    32  H    1.771907   0.000000
    33  H    2.348573   2.942391   0.000000
    34  H    4.660970   4.273408   2.807760   0.000000
    35  H    5.456140   4.816101   3.630385   1.787343   0.000000
    36  H    4.720079   4.689418   2.480078   1.775807   1.776614
    37  H    7.825195   7.372807   7.525228   8.387859   7.127529
    38  H    8.103019   7.064191   9.385574  10.405665   9.846795
    39  H    6.515748   5.350016   7.754941   8.702705   8.250758
    40  H    9.269162   8.359987  10.281467  11.315182  10.500753
    41  H    5.768963   5.292633   7.356629   9.073891   8.839251
    42  H    7.555123   7.041440   9.075795  10.710645  10.321073
    43  H    6.945560   6.273320   8.702848  10.225499  10.050575
    44  H   12.415529  11.628828  12.821712  13.603489  12.348716
                   36         37         38         39         40
    36  H    0.000000
    37  H    7.321262   0.000000
    38  H   10.371132   6.601530   0.000000
    39  H    8.773870   6.153836   1.769027   0.000000
    40  H   11.009285   5.800460   2.041041   3.394878   0.000000
    41  H    8.849866   6.136229   3.084591   2.566722   4.110916
    42  H   10.427108   6.532564   2.478184   3.089035   3.010725
    43  H   10.224949   7.534563   2.465851   2.527657   3.996820
    44  H   12.908631   5.950662   6.387652   7.429755   4.392538
                   41         42         43         44
    41  H    0.000000
    42  H    1.791846   0.000000
    43  H    1.768110   1.767631   0.000000
    44  H    7.943185   6.894628   8.267327   0.000000
 Stoichiometry    C17H19F2N3O3
 Framework group  C1[X(C17H19F2N3O3)]
 Deg. of freedom   126
 Full point group                 C1      NOp   1
 Largest Abelian subgroup         C1      NOp   1
 Largest concise Abelian subgroup C1      NOp   1
                         Standard orientation:                         
 ---------------------------------------------------------------------
 Center     Atomic      Atomic             Coordinates (Angstroms)
 Number     Number       Type             X           Y           Z
 ---------------------------------------------------------------------
      1          9           0        0.857943    1.901599    0.415279
      2          9           0        1.656531   -2.665025   -0.757700
      3          8           0       -3.249342   -2.413340   -0.601054
      4          8           0       -5.622755   -1.712048    0.544199
      5          8           0       -6.105307    0.448162    0.039073
      6          7           0        2.714309   -0.003365   -0.106106
      7          7           0        5.540204    0.602500   -0.107687
      8          7           0       -2.002908    1.388007    0.413656
      9          6           0        4.956489   -0.350717    0.842499
     10          6           0        3.689493   -1.026751    0.291433
     11          6           0        3.254314    0.933524   -1.107438
     12          6           0        4.558706    1.564599   -0.602979
     13          6           0        1.352471   -0.334136   -0.152580
     14          6           0        6.017838   -1.363520    1.248597
     15          6           0        0.373564    0.643989    0.125874
     16          6           0       -1.020035    0.417483    0.132683
     17          6           0        0.827936   -1.625449   -0.416640
     18          6           0       -1.455627   -0.902413   -0.144671
     19          6           0       -0.515824   -1.899542   -0.398683
     20          6           0       -1.735343    2.833083    0.570565
     21          6           0       -2.886738   -1.287530   -0.211669
     22          6           0       -3.317966    1.026233    0.412502
     23          6           0       -3.802359   -0.232337    0.172542
     24          6           0       -1.541966    3.544896   -0.760843
     25          6           0       -5.262347   -0.431204    0.232418
     26          1           0        4.646461    0.227121    1.733161
     27          1           0        3.958865   -1.682992   -0.557962
     28          1           0        3.236113   -1.649742    1.074598
     29          1           0        2.506110    1.703921   -1.323014
     30          1           0        3.447458    0.384696   -2.051359
     31          1           0        5.022246    2.170087   -1.395903
     32          1           0        4.321087    2.244431    0.229674
     33          1           0        6.003409    0.099913   -0.878704
     34          1           0        6.927076   -0.855125    1.594807
     35          1           0        5.644277   -2.012847    2.051648
     36          1           0        6.295475   -2.005729    0.398696
     37          1           0       -0.897862   -2.890628   -0.637513
     38          1           0       -2.620597    3.249089    1.070191
     39          1           0       -0.882192    2.969439    1.241069
     40          1           0       -4.019964    1.834756    0.614909
     41          1           0       -0.652521    3.204303   -1.304546
     42          1           0       -2.429697    3.414445   -1.395090
     43          1           0       -1.424691    4.625344   -0.589976
     44          1           0       -6.608966   -1.713070    0.548668
 ---------------------------------------------------------------------
 Rotational constants (GHZ):      0.4778195      0.1114391      0.0944800
 Standard basis: LANL2DZ (5D, 7F)
 There are   263 symmetry adapted cartesian basis functions of A   symmetry.
 There are   263 symmetry adapted basis functions of A   symmetry.
   263 basis functions,   701 primitive gaussians,   263 cartesian basis functions
    92 alpha electrons       92 beta electrons
       nuclear repulsion energy      2260.8189874589 Hartrees.
 NAtoms=   44 NActive=   44 NUniq=   44 SFac= 1.00D+00 NAtFMM=   60 NAOKFM=F Big=F
 Integral buffers will be    131072 words long.
 Raffenetti 2 integral format.
 Two-electron integral symmetry is turned on.
 One-electron integrals computed using PRISM.
 PrsmSu:  requested number of processors reduced to:   8 ShMem   1 Linda.
   1 Symmetry operations used in ECPInt.
 ECPInt:  NShTT=   13366 NPrTT=  102683 LenC2=   11761 LenP2D=   49673.
 LDataN:  DoStor=T MaxTD1= 2 Len=   12
 Number of processors reduced to   8 by ecpmxn.
 NBasis=   263 RedAO= T EigKep=  1.72D-04  NBF=   263
 NBsUse=   263 1.00D-06 EigRej= -1.00D+00 NBFU=   263
 ExpMin= 1.15D-01 ExpMax= 1.00D+04 ExpMxC= 3.50D+02 IAcc=3 IRadAn=         5 AccDes= 0.00D+00
 Harris functional with IExCor= 1009 and IRadAn=       5 diagonalized for initial guess.
 HarFok:  IExCor= 1009 AccDes= 0.00D+00 IRadAn=         5 IDoV= 1 UseB2=F ITyADJ=14
 ICtDFT=  3500011 ScaDFX=  1.000000  1.000000  1.000000  1.000000
 FoFCou: FMM=F IPFlag=           0 FMFlag=      100000 FMFlg1=           0
         NFxFlg=           0 DoJE=T BraDBF=F KetDBF=T FulRan=T
         wScrn=  0.000000 ICntrl=     500 IOpCl=  0 I1Cent=   200000004 NGrid=           0
         NMat0=    1 NMatS0=      1 NMatT0=    0 NMatD0=    1 NMtDS0=    0 NMtDT0=    0
 Petite list used in FoFCou.
 Requested convergence on RMS density matrix=1.00D-08 within 128 cycles.
 Requested convergence on MAX density matrix=1.00D-06.
 Requested convergence on             energy=1.00D-06.
 No special actions if energy rises.
 Integral accuracy reduced to 1.0D-05 until final iterations.
 EnCoef did     2 forward-backward iterations
 Initial convergence to 1.0D-05 achieved.  Increase integral accuracy.
 SCF Done:  E(RM06) =  -1247.94732741     A.U. after   17 cycles
            NFock= 17  Conv=0.97D-08     -V/T= 2.0047

 **********************************************************************

            Population analysis using the SCF density.

 **********************************************************************

 Orbital symmetries:
       Occupied  (A) (A) (A) (A) (A) (A) (A) (A) (A) (A) (A) (A)
                 (A) (A) (A) (A) (A) (A) (A) (A) (A) (A) (A) (A)
                 (A) (A) (A) (A) (A) (A) (A) (A) (A) (A) (A) (A)
                 (A) (A) (A) (A) (A) (A) (A) (A) (A) (A) (A) (A)
                 (A) (A) (A) (A) (A) (A) (A) (A) (A) (A) (A) (A)
                 (A) (A) (A) (A) (A) (A) (A) (A) (A) (A) (A) (A)
                 (A) (A) (A) (A) (A) (A) (A) (A) (A) (A) (A) (A)
                 (A) (A) (A) (A) (A) (A) (A) (A)
       Virtual   (A) (A) (A) (A) (A) (A) (A) (A) (A) (A) (A) (A)
                 (A) (A) (A) (A) (A) (A) (A) (A) (A) (A) (A) (A)
                 (A) (A) (A) (A) (A) (A) (A) (A) (A) (A) (A) (A)
                 (A) (A) (A) (A) (A) (A) (A) (A) (A) (A) (A) (A)
                 (A) (A) (A) (A) (A) (A) (A) (A) (A) (A) (A) (A)
                 (A) (A) (A) (A) (A) (A) (A) (A) (A) (A) (A) (A)
                 (A) (A) (A) (A) (A) (A) (A) (A) (A) (A) (A) (A)
                 (A) (A) (A) (A) (A) (A) (A) (A) (A) (A) (A) (A)
                 (A) (A) (A) (A) (A) (A) (A) (A) (A) (A) (A) (A)
                 (A) (A) (A) (A) (A) (A) (A) (A) (A) (A) (A) (A)
                 (A) (A) (A) (A) (A) (A) (A) (A) (A) (A) (A) (A)
                 (A) (A) (A) (A) (A) (A) (A) (A) (A) (A) (A) (A)
                 (A) (A) (A) (A) (A) (A) (A) (A) (A) (A) (A) (A)
                 (A) (A) (A) (A) (A) (A) (A) (A) (A) (A) (A) (A)
                 (A) (A) (A)
 The electronic state is 1-A.
 Alpha  occ. eigenvalues --  -24.82823 -24.81330 -19.26622 -19.22400 -19.19675
 Alpha  occ. eigenvalues --  -14.49375 -14.43188 -14.39040 -10.40796 -10.37665
 Alpha  occ. eigenvalues --  -10.36674 -10.35187 -10.34898 -10.34317 -10.34254
 Alpha  occ. eigenvalues --  -10.32079 -10.29399 -10.29163 -10.28730 -10.28659
 Alpha  occ. eigenvalues --  -10.28153 -10.28137 -10.27999 -10.26378 -10.24130
 Alpha  occ. eigenvalues --   -1.28590  -1.27245  -1.14441  -1.05832  -1.05252
 Alpha  occ. eigenvalues --   -1.03721  -0.98913  -0.93305  -0.90312  -0.85309
 Alpha  occ. eigenvalues --   -0.81828  -0.80446  -0.80320  -0.78370  -0.73341
 Alpha  occ. eigenvalues --   -0.72019  -0.70280  -0.69032  -0.67530  -0.64711
 Alpha  occ. eigenvalues --   -0.64202  -0.63670  -0.60546  -0.59438  -0.58273
 Alpha  occ. eigenvalues --   -0.56983  -0.54817  -0.54039  -0.53391  -0.52103
 Alpha  occ. eigenvalues --   -0.50792  -0.49729  -0.49467  -0.49270  -0.49108
 Alpha  occ. eigenvalues --   -0.48721  -0.47933  -0.47921  -0.47397  -0.47266
 Alpha  occ. eigenvalues --   -0.46731  -0.45403  -0.45196  -0.44227  -0.43081
 Alpha  occ. eigenvalues --   -0.42692  -0.41613  -0.41340  -0.41135  -0.40383
 Alpha  occ. eigenvalues --   -0.40091  -0.39570  -0.39030  -0.38872  -0.38534
 Alpha  occ. eigenvalues --   -0.37771  -0.36383  -0.35840  -0.35555  -0.33299
 Alpha  occ. eigenvalues --   -0.31700  -0.29949  -0.29463  -0.25589  -0.25011
 Alpha  occ. eigenvalues --   -0.24650  -0.22417
 Alpha virt. eigenvalues --   -0.06369  -0.05506  -0.00849   0.01385   0.05118
 Alpha virt. eigenvalues --    0.08221   0.09603   0.09726   0.10250   0.10947
 Alpha virt. eigenvalues --    0.11390   0.11897   0.12432   0.12820   0.13718
 Alpha virt. eigenvalues --    0.14377   0.14981   0.15775   0.16106   0.16527
 Alpha virt. eigenvalues --    0.16729   0.17493   0.17745   0.17946   0.18408
 Alpha virt. eigenvalues --    0.18858   0.19311   0.20241   0.20708   0.20999
 Alpha virt. eigenvalues --    0.21463   0.21849   0.22030   0.22469   0.22986
 Alpha virt. eigenvalues --    0.23652   0.24021   0.24508   0.25040   0.25425
 Alpha virt. eigenvalues --    0.25832   0.26580   0.26756   0.27235   0.27477
 Alpha virt. eigenvalues --    0.28023   0.28707   0.28869   0.29940   0.30189
 Alpha virt. eigenvalues --    0.31038   0.31811   0.32331   0.33017   0.33757
 Alpha virt. eigenvalues --    0.34340   0.34634   0.35368   0.35789   0.36196
 Alpha virt. eigenvalues --    0.36403   0.37298   0.37850   0.38109   0.38815
 Alpha virt. eigenvalues --    0.39442   0.39524   0.39915   0.40265   0.40792
 Alpha virt. eigenvalues --    0.41825   0.42369   0.43374   0.43885   0.44043
 Alpha virt. eigenvalues --    0.45086   0.45373   0.47056   0.47592   0.48240
 Alpha virt. eigenvalues --    0.49922   0.50064   0.50610   0.51271   0.52050
 Alpha virt. eigenvalues --    0.52894   0.53821   0.54607   0.55534   0.56278
 Alpha virt. eigenvalues --    0.57014   0.58035   0.59015   0.60614   0.60921
 Alpha virt. eigenvalues --    0.64317   0.64811   0.65173   0.65996   0.67691
 Alpha virt. eigenvalues --    0.68739   0.69905   0.70221   0.70773   0.72734
 Alpha virt. eigenvalues --    0.73478   0.75983   0.76131   0.80666   0.81168
 Alpha virt. eigenvalues --    0.82965   0.83572   0.87056   0.88117   0.89418
 Alpha virt. eigenvalues --    0.89777   0.91292   0.92709   0.93672   0.95114
 Alpha virt. eigenvalues --    0.95617   0.97022   0.98237   1.00434   1.01438
 Alpha virt. eigenvalues --    1.02302   1.03493   1.04295   1.05475   1.05748
 Alpha virt. eigenvalues --    1.06993   1.07651   1.07696   1.08415   1.09412
 Alpha virt. eigenvalues --    1.10252   1.11223   1.12097   1.12372   1.12766
 Alpha virt. eigenvalues --    1.14387   1.14955   1.15456   1.17272   1.17506
 Alpha virt. eigenvalues --    1.19855   1.21330   1.23311   1.24641   1.26134
 Alpha virt. eigenvalues --    1.30891   1.31463   1.34325   1.38207   1.42124
 Alpha virt. eigenvalues --    1.44307   1.45929   1.46978   1.50462   1.52178
 Alpha virt. eigenvalues --    1.57158   1.58799   1.73603   1.74593   1.79429
 Alpha virt. eigenvalues --    1.80562   1.90513   1.96046   1.97066   2.17237
 Alpha virt. eigenvalues --    2.26316
          Condensed to atoms (all electrons):
               1          2          3          4          5          6
     1  F    9.069432  -0.000004   0.000000   0.000000   0.000000   0.000345
     2  F   -0.000004   9.049428   0.000005   0.000000   0.000000   0.001786
     3  O    0.000000   0.000005   7.785651  -0.008252   0.000046   0.000000
     4  O    0.000000   0.000000  -0.008252   8.075109  -0.086238   0.000000
     5  O    0.000000   0.000000   0.000046  -0.086238   7.860926   0.000000
     6  N    0.000345   0.001786   0.000000   0.000000   0.000000   6.868625
     7  N   -0.000009  -0.000003   0.000000   0.000000   0.000000  -0.014435
     8  N    0.003976   0.000000   0.000348  -0.000031   0.000370  -0.000032
     9  C   -0.000086   0.000595   0.000000   0.000000   0.000000  -0.065353
    10  C    0.000017   0.011759   0.000000   0.000000   0.000000   0.294534
    11  C   -0.000542  -0.000050   0.000000   0.000000   0.000000   0.273247
    12  C   -0.000044  -0.000023   0.000000   0.000000   0.000000  -0.051633
    13  C   -0.073240  -0.039807   0.000097   0.000000   0.000000   0.189983
    14  C   -0.000001  -0.000019   0.000000   0.000000   0.000000   0.006169
    15  C    0.285327  -0.000064  -0.000329  -0.000005  -0.000015  -0.052357
    16  C   -0.036813  -0.000604  -0.008757  -0.000403  -0.000554   0.000722
    17  C    0.000398   0.294769   0.001631   0.000001   0.000000  -0.033534
    18  C   -0.003555  -0.002296  -0.130902  -0.000976   0.000196   0.000876
    19  C   -0.000439  -0.068268   0.030287   0.000179   0.000032   0.004562
    20  C    0.004101   0.000000  -0.000001   0.000000   0.000100   0.000032
    21  C   -0.000161  -0.000069   0.691791   0.004291  -0.002931   0.000029
    22  C    0.000918   0.000000   0.002038  -0.008345   0.005138   0.000007
    23  C    0.000037  -0.000005  -0.089024  -0.036509  -0.054240  -0.000003
    24  C   -0.004364   0.000000   0.000000   0.000000   0.000003  -0.000020
    25  C    0.000000   0.000000  -0.006032   0.252681   0.594992   0.000000
    26  H   -0.000005  -0.000004   0.000000   0.000000   0.000000   0.006382
    27  H   -0.000004  -0.002271   0.000000   0.000000   0.000000  -0.065723
    28  H    0.000000  -0.003612   0.000000   0.000000   0.000000  -0.041987
    29  H    0.001417  -0.000001   0.000000   0.000000   0.000000  -0.036551
    30  H    0.000130  -0.000060   0.000000   0.000000   0.000000  -0.073414
    31  H   -0.000001   0.000000   0.000000   0.000000   0.000000   0.004017
    32  H    0.000028   0.000000   0.000000   0.000000   0.000000   0.000026
    33  H    0.000000   0.000000   0.000000   0.000000   0.000000  -0.000537
    34  H    0.000000   0.000000   0.000000   0.000000   0.000000  -0.000067
    35  H    0.000000   0.000001   0.000000   0.000000   0.000000  -0.000017
    36  H    0.000000   0.000000   0.000000   0.000000   0.000000  -0.000033
    37  H    0.000000   0.000386   0.011899   0.000001   0.000000  -0.000099
    38  H    0.000334   0.000000   0.000000   0.000000   0.000004   0.000000
    39  H    0.000171   0.000000   0.000000   0.000000   0.000000  -0.000007
    40  H    0.000000   0.000000  -0.000067   0.000344   0.006388   0.000000
    41  H    0.001693   0.000000   0.000000   0.000000   0.000000   0.000000
    42  H    0.000060   0.000000   0.000000   0.000000   0.000000   0.000000
    43  H   -0.000039   0.000000   0.000000   0.000000   0.000000   0.000000
    44  H    0.000000   0.000000   0.000158   0.250704   0.003188   0.000000
               7          8          9         10         11         12
     1  F   -0.000009   0.003976  -0.000086   0.000017  -0.000542  -0.000044
     2  F   -0.000003   0.000000   0.000595   0.011759  -0.000050  -0.000023
     3  O    0.000000   0.000348   0.000000   0.000000   0.000000   0.000000
     4  O    0.000000  -0.000031   0.000000   0.000000   0.000000   0.000000
     5  O    0.000000   0.000370   0.000000   0.000000   0.000000   0.000000
     6  N   -0.014435  -0.000032  -0.065353   0.294534   0.273247  -0.051633
     7  N    6.699222   0.000000   0.356617  -0.087651  -0.077775   0.335674
     8  N    0.000000   6.660494   0.000000   0.000001   0.000004   0.000000
     9  C    0.356617   0.000000   5.225716   0.240877  -0.008245  -0.063314
    10  C   -0.087651   0.000001   0.240877   5.456893  -0.062616   0.006559
    11  C   -0.077775   0.000004  -0.008245  -0.062616   5.449028   0.246828
    12  C    0.335674   0.000000  -0.063314   0.006559   0.246828   5.378569
    13  C   -0.001969  -0.003731   0.003429  -0.048654  -0.068028   0.001163
    14  C   -0.066423   0.000000   0.249421  -0.078258  -0.002033   0.008459
    15  C    0.000025  -0.034151   0.000288   0.002675  -0.023371  -0.001442
    16  C    0.000006   0.209610  -0.000033   0.001094  -0.004330   0.000004
    17  C   -0.000141   0.000960  -0.001146  -0.011747  -0.001832  -0.000267
    18  C    0.000000  -0.026122  -0.000025  -0.000331  -0.000179   0.000003
    19  C   -0.000005   0.009546  -0.000022  -0.003378   0.000244  -0.000005
    20  C    0.000000   0.239469   0.000000   0.000000   0.000020  -0.000003
    21  C    0.000000  -0.014021   0.000000  -0.000003  -0.000016   0.000000
    22  C    0.000000   0.416401   0.000000   0.000001  -0.000001   0.000000
    23  C    0.000000  -0.060829   0.000000  -0.000001  -0.000001   0.000000
    24  C    0.000000  -0.070140   0.000000   0.000000  -0.000023   0.000003
    25  C    0.000000   0.006869   0.000000   0.000000   0.000000   0.000000
    26  H   -0.053260   0.000000   0.326084  -0.077561  -0.002556  -0.013560
    27  H   -0.004158   0.000000  -0.048188   0.350341  -0.001218  -0.001855
    28  H    0.005403   0.000000  -0.019675   0.355747   0.007309  -0.000600
    29  H    0.004999   0.000022   0.000168   0.005599   0.351312  -0.012822
    30  H   -0.002518  -0.000001  -0.001157  -0.001608   0.368594  -0.050805
    31  H   -0.036429   0.000000   0.009930  -0.002061  -0.033133   0.333667
    32  H   -0.045790   0.000000  -0.014520  -0.001443  -0.068533   0.362549
    33  H    0.310878   0.000000  -0.047646  -0.003602  -0.002212  -0.049904
    34  H    0.000558   0.000000  -0.026875   0.004800   0.000008   0.000094
    35  H    0.003386   0.000000  -0.022122   0.002117   0.000064  -0.000165
    36  H   -0.006632   0.000000  -0.028166  -0.011858   0.000043  -0.000029
    37  H    0.000000  -0.000059   0.000000   0.000033  -0.000003   0.000000
    38  H    0.000000  -0.041607   0.000000   0.000000   0.000000   0.000000
    39  H    0.000000  -0.039163   0.000000   0.000000   0.000014  -0.000001
    40  H    0.000000  -0.040624   0.000000   0.000000   0.000000   0.000000
    41  H    0.000000  -0.002781   0.000000   0.000000   0.000004   0.000004
    42  H    0.000000  -0.003238   0.000000   0.000000   0.000001   0.000000
    43  H    0.000000   0.004671   0.000000   0.000000   0.000000   0.000000
    44  H    0.000000   0.000001   0.000000   0.000000   0.000000   0.000000
              13         14         15         16         17         18
     1  F   -0.073240  -0.000001   0.285327  -0.036813   0.000398  -0.003555
     2  F   -0.039807  -0.000019  -0.000064  -0.000604   0.294769  -0.002296
     3  O    0.000097   0.000000  -0.000329  -0.008757   0.001631  -0.130902
     4  O    0.000000   0.000000  -0.000005  -0.000403   0.000001  -0.000976
     5  O    0.000000   0.000000  -0.000015  -0.000554   0.000000   0.000196
     6  N    0.189983   0.006169  -0.052357   0.000722  -0.033534   0.000876
     7  N   -0.001969  -0.066423   0.000025   0.000006  -0.000141   0.000000
     8  N   -0.003731   0.000000  -0.034151   0.209610   0.000960  -0.026122
     9  C    0.003429   0.249421   0.000288  -0.000033  -0.001146  -0.000025
    10  C   -0.048654  -0.078258   0.002675   0.001094  -0.011747  -0.000331
    11  C   -0.068028  -0.002033  -0.023371  -0.004330  -0.001832  -0.000179
    12  C    0.001163   0.008459  -0.001442   0.000004  -0.000267   0.000003
    13  C    5.852318  -0.001030   0.284531  -0.115867   0.245427  -0.147938
    14  C   -0.001030   5.520854   0.000060   0.000002  -0.000096   0.000000
    15  C    0.284531   0.000060   5.461169   0.351353  -0.172197  -0.174273
    16  C   -0.115867   0.000002   0.351353   5.786765  -0.103768   0.115340
    17  C    0.245427  -0.000096  -0.172197  -0.103768   5.199163  -0.083742
    18  C   -0.147938   0.000000  -0.174273   0.115340  -0.083742   5.831682
    19  C   -0.181692  -0.000009  -0.116049  -0.202236   0.396821   0.486142
    20  C   -0.000891   0.000000  -0.002323  -0.035506  -0.000256   0.003296
    21  C   -0.002542   0.000000  -0.000580  -0.027747  -0.015302   0.047046
    22  C    0.000389   0.000000  -0.000741  -0.138788   0.000088   0.021649
    23  C    0.000135   0.000000  -0.004211   0.024754  -0.001807  -0.182041
    24  C    0.000892   0.000000   0.006474  -0.008115   0.000079  -0.001785
    25  C   -0.000020   0.000000  -0.000561  -0.001689   0.000014  -0.024485
    26  H    0.000270  -0.030723   0.000253   0.000016  -0.000276   0.000001
    27  H   -0.005791  -0.000829  -0.000703   0.000005   0.006339   0.000043
    28  H   -0.002658   0.002890  -0.000341   0.000023   0.002200  -0.000040
    29  H   -0.004726  -0.000020  -0.000664  -0.000496  -0.000024   0.000025
    30  H    0.003619   0.000209   0.004195   0.000327  -0.001857  -0.000024
    31  H   -0.000015  -0.000534   0.000078   0.000002   0.000001   0.000000
    32  H   -0.001426   0.000888   0.001006   0.000052  -0.000131   0.000001
    33  H    0.000153  -0.004313   0.000014   0.000000  -0.000029   0.000000
    34  H    0.000004   0.371947  -0.000001   0.000000   0.000001   0.000000
    35  H    0.000023   0.361814   0.000000   0.000000   0.000006   0.000000
    36  H    0.000019   0.367095   0.000001   0.000000  -0.000008   0.000000
    37  H   -0.002589   0.000000   0.000133   0.004989  -0.053702  -0.005172
    38  H   -0.000009   0.000000  -0.000360   0.001560  -0.000002   0.000227
    39  H    0.000625   0.000000   0.005989  -0.006818   0.000043  -0.000731
    40  H   -0.000003   0.000000   0.000010  -0.003729   0.000002  -0.000550
    41  H   -0.000502   0.000000  -0.002053   0.004669  -0.000032   0.000468
    42  H   -0.000004   0.000000   0.000266  -0.001333   0.000000  -0.000163
    43  H   -0.000014   0.000000  -0.000391   0.000320   0.000000   0.000015
    44  H    0.000000   0.000000   0.000000   0.000010   0.000000   0.000042
              19         20         21         22         23         24
     1  F   -0.000439   0.004101  -0.000161   0.000918   0.000037  -0.004364
     2  F   -0.068268   0.000000  -0.000069   0.000000  -0.000005   0.000000
     3  O    0.030287  -0.000001   0.691791   0.002038  -0.089024   0.000000
     4  O    0.000179   0.000000   0.004291  -0.008345  -0.036509   0.000000
     5  O    0.000032   0.000100  -0.002931   0.005138  -0.054240   0.000003
     6  N    0.004562   0.000032   0.000029   0.000007  -0.000003  -0.000020
     7  N   -0.000005   0.000000   0.000000   0.000000   0.000000   0.000000
     8  N    0.009546   0.239469  -0.014021   0.416401  -0.060829  -0.070140
     9  C   -0.000022   0.000000   0.000000   0.000000   0.000000   0.000000
    10  C   -0.003378   0.000000  -0.000003   0.000001  -0.000001   0.000000
    11  C    0.000244   0.000020  -0.000016  -0.000001  -0.000001  -0.000023
    12  C   -0.000005  -0.000003   0.000000   0.000000   0.000000   0.000003
    13  C   -0.181692  -0.000891  -0.002542   0.000389   0.000135   0.000892
    14  C   -0.000009   0.000000   0.000000   0.000000   0.000000   0.000000
    15  C   -0.116049  -0.002323  -0.000580  -0.000741  -0.004211   0.006474
    16  C   -0.202236  -0.035506  -0.027747  -0.138788   0.024754  -0.008115
    17  C    0.396821  -0.000256  -0.015302   0.000088  -0.001807   0.000079
    18  C    0.486142   0.003296   0.047046   0.021649  -0.182041  -0.001785
    19  C    6.026441  -0.000065  -0.025295   0.004588  -0.027245  -0.000077
    20  C   -0.000065   5.242106   0.000491  -0.051356   0.005428   0.276862
    21  C   -0.025295   0.000491   5.240567  -0.069719   0.059119   0.000069
    22  C    0.004588  -0.051356  -0.069719   5.511468   0.281826  -0.007361
    23  C   -0.027245   0.005428   0.059119   0.281826   5.901170  -0.000628
    24  C   -0.000077   0.276862   0.000069  -0.007361  -0.000628   5.408563
    25  C    0.000489   0.000295  -0.046626  -0.011304   0.069845   0.000022
    26  H   -0.000010   0.000000   0.000000   0.000000   0.000000   0.000000
    27  H    0.000107   0.000000   0.000000   0.000000   0.000000   0.000000
    28  H    0.000234   0.000000  -0.000001   0.000000   0.000000   0.000000
    29  H    0.000013  -0.000044  -0.000001   0.000002   0.000000   0.000018
    30  H   -0.000213   0.000000   0.000000   0.000000   0.000000   0.000000
    31  H    0.000000   0.000000   0.000000   0.000000   0.000000   0.000000
    32  H   -0.000002   0.000000   0.000000   0.000000   0.000000   0.000000
    33  H    0.000000   0.000000   0.000000   0.000000   0.000000   0.000000
    34  H    0.000000   0.000000   0.000000   0.000000   0.000000   0.000000
    35  H    0.000000   0.000000   0.000000   0.000000   0.000000   0.000000
    36  H    0.000000   0.000000   0.000000   0.000000   0.000000   0.000000
    37  H    0.317333   0.000005   0.005667  -0.000122   0.002925   0.000000
    38  H    0.000024   0.364256  -0.000035   0.001200   0.001499  -0.045958
    39  H   -0.000049   0.375979  -0.000010   0.002660  -0.000110  -0.034858
    40  H    0.000032  -0.003833   0.003314   0.316734  -0.011027  -0.000554
    41  H    0.000044  -0.034184   0.000008  -0.000251  -0.000030   0.370594
    42  H   -0.000001  -0.037189   0.000023   0.006237   0.000140   0.372631
    43  H    0.000000  -0.027284   0.000001  -0.000102  -0.000005   0.368289
    44  H   -0.000006   0.000000   0.001640  -0.000347   0.004606   0.000000
              25         26         27         28         29         30
     1  F    0.000000  -0.000005  -0.000004   0.000000   0.001417   0.000130
     2  F    0.000000  -0.000004  -0.002271  -0.003612  -0.000001  -0.000060
     3  O   -0.006032   0.000000   0.000000   0.000000   0.000000   0.000000
     4  O    0.252681   0.000000   0.000000   0.000000   0.000000   0.000000
     5  O    0.594992   0.000000   0.000000   0.000000   0.000000   0.000000
     6  N    0.000000   0.006382  -0.065723  -0.041987  -0.036551  -0.073414
     7  N    0.000000  -0.053260  -0.004158   0.005403   0.004999  -0.002518
     8  N    0.006869   0.000000   0.000000   0.000000   0.000022  -0.000001
     9  C    0.000000   0.326084  -0.048188  -0.019675   0.000168  -0.001157
    10  C    0.000000  -0.077561   0.350341   0.355747   0.005599  -0.001608
    11  C    0.000000  -0.002556  -0.001218   0.007309   0.351312   0.368594
    12  C    0.000000  -0.013560  -0.001855  -0.000600  -0.012822  -0.050805
    13  C   -0.000020   0.000270  -0.005791  -0.002658  -0.004726   0.003619
    14  C    0.000000  -0.030723  -0.000829   0.002890  -0.000020   0.000209
    15  C   -0.000561   0.000253  -0.000703  -0.000341  -0.000664   0.004195
    16  C   -0.001689   0.000016   0.000005   0.000023  -0.000496   0.000327
    17  C    0.000014  -0.000276   0.006339   0.002200  -0.000024  -0.001857
    18  C   -0.024485   0.000001   0.000043  -0.000040   0.000025  -0.000024
    19  C    0.000489  -0.000010   0.000107   0.000234   0.000013  -0.000213
    20  C    0.000295   0.000000   0.000000   0.000000  -0.000044   0.000000
    21  C   -0.046626   0.000000   0.000000  -0.000001  -0.000001   0.000000
    22  C   -0.011304   0.000000   0.000000   0.000000   0.000002   0.000000
    23  C    0.069845   0.000000   0.000000   0.000000   0.000000   0.000000
    24  C    0.000022   0.000000   0.000000   0.000000   0.000018   0.000000
    25  C    5.016859   0.000000   0.000000   0.000000   0.000000   0.000000
    26  H    0.000000   0.607252   0.005564  -0.000574   0.000175   0.000235
    27  H    0.000000   0.005564   0.575286  -0.024120  -0.000048   0.006917
    28  H    0.000000  -0.000574  -0.024120   0.503662  -0.000067  -0.000029
    29  H    0.000000   0.000175  -0.000048  -0.000067   0.494600  -0.029632
    30  H    0.000000   0.000235   0.006917  -0.000029  -0.029632   0.566531
    31  H    0.000000   0.000388   0.000148  -0.000001   0.001154  -0.001099
    32  H    0.000000   0.009762   0.000171   0.000101  -0.000437   0.004447
    33  H    0.000000   0.007198   0.003972   0.000052   0.000025   0.003240
    34  H    0.000000  -0.003195  -0.000003  -0.000023   0.000000   0.000000
    35  H    0.000000  -0.003891   0.000056   0.000201   0.000000  -0.000001
    36  H    0.000000   0.004526   0.004951   0.000134   0.000000   0.000000
    37  H   -0.000007   0.000000   0.000001   0.000002   0.000000   0.000000
    38  H   -0.000024   0.000000   0.000000   0.000000   0.000000   0.000000
    39  H    0.000007   0.000000   0.000000   0.000000   0.000002   0.000000
    40  H   -0.002429   0.000000   0.000000   0.000000   0.000000   0.000000
    41  H   -0.000001   0.000000   0.000000   0.000000   0.000107  -0.000001
    42  H    0.000022   0.000000   0.000000   0.000000   0.000000   0.000000
    43  H    0.000000   0.000000   0.000000   0.000000   0.000000   0.000000
    44  H   -0.030717   0.000000   0.000000   0.000000   0.000000   0.000000
              31         32         33         34         35         36
     1  F   -0.000001   0.000028   0.000000   0.000000   0.000000   0.000000
     2  F    0.000000   0.000000   0.000000   0.000000   0.000001   0.000000
     3  O    0.000000   0.000000   0.000000   0.000000   0.000000   0.000000
     4  O    0.000000   0.000000   0.000000   0.000000   0.000000   0.000000
     5  O    0.000000   0.000000   0.000000   0.000000   0.000000   0.000000
     6  N    0.004017   0.000026  -0.000537  -0.000067  -0.000017  -0.000033
     7  N   -0.036429  -0.045790   0.310878   0.000558   0.003386  -0.006632
     8  N    0.000000   0.000000   0.000000   0.000000   0.000000   0.000000
     9  C    0.009930  -0.014520  -0.047646  -0.026875  -0.022122  -0.028166
    10  C   -0.002061  -0.001443  -0.003602   0.004800   0.002117  -0.011858
    11  C   -0.033133  -0.068533  -0.002212   0.000008   0.000064   0.000043
    12  C    0.333667   0.362549  -0.049904   0.000094  -0.000165  -0.000029
    13  C   -0.000015  -0.001426   0.000153   0.000004   0.000023   0.000019
    14  C   -0.000534   0.000888  -0.004313   0.371947   0.361814   0.367095
    15  C    0.000078   0.001006   0.000014  -0.000001   0.000000   0.000001
    16  C    0.000002   0.000052   0.000000   0.000000   0.000000   0.000000
    17  C    0.000001  -0.000131  -0.000029   0.000001   0.000006  -0.000008
    18  C    0.000000   0.000001   0.000000   0.000000   0.000000   0.000000
    19  C    0.000000  -0.000002   0.000000   0.000000   0.000000   0.000000
    20  C    0.000000   0.000000   0.000000   0.000000   0.000000   0.000000
    21  C    0.000000   0.000000   0.000000   0.000000   0.000000   0.000000
    22  C    0.000000   0.000000   0.000000   0.000000   0.000000   0.000000
    23  C    0.000000   0.000000   0.000000   0.000000   0.000000   0.000000
    24  C    0.000000   0.000000   0.000000   0.000000   0.000000   0.000000
    25  C    0.000000   0.000000   0.000000   0.000000   0.000000   0.000000
    26  H    0.000388   0.009762   0.007198  -0.003195  -0.003891   0.004526
    27  H    0.000148   0.000171   0.003972  -0.000003   0.000056   0.004951
    28  H   -0.000001   0.000101   0.000052  -0.000023   0.000201   0.000134
    29  H    0.001154  -0.000437   0.000025   0.000000   0.000000   0.000000
    30  H   -0.001099   0.004447   0.003240   0.000000  -0.000001   0.000000
    31  H    0.532189  -0.016840  -0.004518  -0.000006   0.000001   0.000013
    32  H   -0.016840   0.541017   0.006097  -0.000011  -0.000006   0.000006
    33  H   -0.004518   0.006097   0.518830  -0.000672   0.000050   0.004399
    34  H   -0.000006  -0.000011  -0.000672   0.453510  -0.017210  -0.023528
    35  H    0.000001  -0.000006   0.000050  -0.017210   0.493474  -0.024012
    36  H    0.000013   0.000006   0.004399  -0.023528  -0.024012   0.523866
    37  H    0.000000   0.000000   0.000000   0.000000   0.000000   0.000000
    38  H    0.000000   0.000000   0.000000   0.000000   0.000000   0.000000
    39  H    0.000000   0.000000   0.000000   0.000000   0.000000   0.000000
    40  H    0.000000   0.000000   0.000000   0.000000   0.000000   0.000000
    41  H    0.000000   0.000000   0.000000   0.000000   0.000000   0.000000
    42  H    0.000000   0.000000   0.000000   0.000000   0.000000   0.000000
    43  H    0.000000   0.000000   0.000000   0.000000   0.000000   0.000000
    44  H    0.000000   0.000000   0.000000   0.000000   0.000000   0.000000
              37         38         39         40         41         42
     1  F    0.000000   0.000334   0.000171   0.000000   0.001693   0.000060
     2  F    0.000386   0.000000   0.000000   0.000000   0.000000   0.000000
     3  O    0.011899   0.000000   0.000000  -0.000067   0.000000   0.000000
     4  O    0.000001   0.000000   0.000000   0.000344   0.000000   0.000000
     5  O    0.000000   0.000004   0.000000   0.006388   0.000000   0.000000
     6  N   -0.000099   0.000000  -0.000007   0.000000   0.000000   0.000000
     7  N    0.000000   0.000000   0.000000   0.000000   0.000000   0.000000
     8  N   -0.000059  -0.041607  -0.039163  -0.040624  -0.002781  -0.003238
     9  C    0.000000   0.000000   0.000000   0.000000   0.000000   0.000000
    10  C    0.000033   0.000000   0.000000   0.000000   0.000000   0.000000
    11  C   -0.000003   0.000000   0.000014   0.000000   0.000004   0.000001
    12  C    0.000000   0.000000  -0.000001   0.000000   0.000004   0.000000
    13  C   -0.002589  -0.000009   0.000625  -0.000003  -0.000502  -0.000004
    14  C    0.000000   0.000000   0.000000   0.000000   0.000000   0.000000
    15  C    0.000133  -0.000360   0.005989   0.000010  -0.002053   0.000266
    16  C    0.004989   0.001560  -0.006818  -0.003729   0.004669  -0.001333
    17  C   -0.053702  -0.000002   0.000043   0.000002  -0.000032   0.000000
    18  C   -0.005172   0.000227  -0.000731  -0.000550   0.000468  -0.000163
    19  C    0.317333   0.000024  -0.000049   0.000032   0.000044  -0.000001
    20  C    0.000005   0.364256   0.375979  -0.003833  -0.034184  -0.037189
    21  C    0.005667  -0.000035  -0.000010   0.003314   0.000008   0.000023
    22  C   -0.000122   0.001200   0.002660   0.316734  -0.000251   0.006237
[...]
    18  C    0.462251   0.004272   0.052739   0.020315  -0.153721  -0.001603
    19  C    5.995651  -0.000002  -0.023127   0.004674  -0.018699  -0.000053
    20  C   -0.000002   5.251005   0.000784  -0.053770   0.005287   0.278765
    21  C   -0.023127   0.000784   5.250708  -0.082773   0.044970   0.000111
    22  C    0.004674  -0.053770  -0.082773   5.538339   0.294334  -0.007433
    23  C   -0.018699   0.005287   0.044970   0.294334   5.874602  -0.000721
    24  C   -0.000053   0.278765   0.000111  -0.007433  -0.000721   5.404031
    25  C    0.000751   0.000422  -0.032636  -0.023936   0.083369   0.000009
    26  H   -0.000022   0.000000   0.000000   0.000000   0.000000   0.000000
    27  H   -0.000133   0.000000   0.000000   0.000000   0.000000   0.000000
    28  H   -0.000600   0.000000   0.000000   0.000000   0.000000   0.000000
    29  H    0.000018  -0.000125   0.000000   0.000002   0.000000   0.000046
    30  H   -0.000067   0.000001   0.000000   0.000000   0.000000  -0.000001
    31  H    0.000000   0.000000   0.000000   0.000000   0.000000   0.000000
    32  H   -0.000004   0.000005   0.000000   0.000000   0.000000  -0.000003
    33  H    0.000000   0.000000   0.000000   0.000000   0.000000   0.000000
    34  H    0.000000   0.000000   0.000000   0.000000   0.000000   0.000000
    35  H    0.000000   0.000000   0.000000   0.000000   0.000000   0.000000
    36  H    0.000000   0.000000   0.000000   0.000000   0.000000   0.000000
    37  H    0.316734   0.000005   0.004269  -0.000123   0.002559  -0.000001
    38  H    0.000019   0.361833  -0.000059   0.002808   0.000968  -0.042040
    39  H   -0.000048   0.375172  -0.000013   0.002248  -0.000083  -0.036569
    40  H    0.000042  -0.002714   0.004296   0.310775  -0.009608  -0.000367
    41  H    0.000055  -0.037022   0.000007  -0.000146  -0.000035   0.370945
    42  H   -0.000002  -0.036773   0.000021   0.004983   0.000082   0.372595
    43  H    0.000000  -0.027205   0.000000  -0.000059  -0.000003   0.370037
    44  H   -0.000005   0.000000   0.001471  -0.000332   0.004997   0.000000
              25         26         27         28         29         30
     1  F    0.000000  -0.000007  -0.000005   0.000004  -0.000706   0.000241
     2  F    0.000000   0.000000  -0.001827  -0.002300  -0.000006  -0.000001
     3  O   -0.007594   0.000000   0.000000   0.000000   0.000000   0.000000
     4  O    0.255992   0.000000   0.000000   0.000000   0.000000   0.000000
     5  O    0.589914   0.000000   0.000000   0.000000   0.000000   0.000000
     6  N    0.000000   0.005879  -0.060812  -0.038449  -0.035398  -0.062329
     7  N    0.000000  -0.059097  -0.001123   0.005116   0.006641  -0.005039
     8  N    0.008386   0.000000   0.000000   0.000000   0.000018   0.000000
     9  C    0.000000   0.326825  -0.045914  -0.025482   0.000220  -0.002600
    10  C    0.000000  -0.076231   0.346109   0.356301   0.004870  -0.001366
    11  C    0.000000  -0.002689  -0.000189   0.006344   0.340763   0.371983
    12  C    0.000000  -0.011987  -0.002518  -0.000745  -0.018111  -0.049925
    13  C   -0.000020   0.001274   0.001844  -0.000002  -0.003547   0.005291
    14  C    0.000000  -0.028999  -0.000392   0.003162  -0.000018   0.000273
    15  C   -0.000563   0.000141  -0.000012   0.000731   0.000688   0.003082
    16  C   -0.001280   0.000034   0.000016   0.000133  -0.000224   0.000193
    17  C    0.000032  -0.000066   0.000558  -0.000973   0.000352  -0.001018
    18  C   -0.024179   0.000005   0.000010  -0.000055   0.000028  -0.000008
    19  C    0.000751  -0.000022  -0.000133  -0.000600   0.000018  -0.000067
    20  C    0.000422   0.000000   0.000000   0.000000  -0.000125   0.000001
    21  C   -0.032636   0.000000   0.000000   0.000000   0.000000   0.000000
    22  C   -0.023936   0.000000   0.000000   0.000000   0.000002   0.000000
    23  C    0.083369   0.000000   0.000000   0.000000   0.000000   0.000000
    24  C    0.000009   0.000000   0.000000   0.000000   0.000046  -0.000001
    25  C    4.978888   0.000000   0.000000   0.000000   0.000000   0.000000
    26  H    0.000000   0.609023   0.005770  -0.000188   0.000213   0.000145
    27  H    0.000000   0.005770   0.565476  -0.018158   0.000151   0.004557
    28  H    0.000000  -0.000188  -0.018158   0.486669  -0.000066   0.000099
    29  H    0.000000   0.000213   0.000151  -0.000066   0.512027  -0.026067
    30  H    0.000000   0.000145   0.004557   0.000099  -0.026067   0.541730
    31  H    0.000000   0.000452   0.000129   0.000001   0.001994  -0.001863
    32  H    0.000000   0.008541   0.000155   0.000099   0.000763   0.003909
    33  H    0.000000   0.006494   0.003092   0.000015   0.000045   0.003033
    34  H    0.000000  -0.003249   0.000008  -0.000044   0.000000   0.000000
    35  H    0.000000  -0.003405  -0.000091   0.000103   0.000000   0.000000
    36  H    0.000000   0.004585   0.005509   0.000178   0.000001  -0.000007
    37  H   -0.000014   0.000000   0.000000   0.000005   0.000000   0.000000
    38  H   -0.000012   0.000000   0.000000   0.000000   0.000000   0.000000
    39  H    0.000004   0.000000   0.000000   0.000000   0.000007   0.000000
    40  H   -0.005549   0.000000   0.000000   0.000000   0.000000   0.000000
    41  H    0.000000   0.000000   0.000000   0.000000   0.000245  -0.000001
    42  H    0.000012   0.000000   0.000000   0.000000   0.000001   0.000000
    43  H    0.000000   0.000000   0.000000   0.000000   0.000001   0.000000
    44  H   -0.028870   0.000000   0.000000   0.000000   0.000000   0.000000
              31         32         33         34         35         36
     1  F   -0.000026   0.000878  -0.000001   0.000000   0.000000   0.000000
     2  F    0.000000   0.000000   0.000000   0.000000   0.000000   0.000000
     3  O    0.000000   0.000000   0.000000   0.000000   0.000000   0.000000
     4  O    0.000000   0.000000   0.000000   0.000000   0.000000   0.000000
     5  O    0.000000   0.000000   0.000000   0.000000   0.000000   0.000000
     6  N    0.004971  -0.000556  -0.000462  -0.000088   0.000030  -0.000073
     7  N   -0.034938  -0.042472   0.315079   0.000083   0.003241  -0.006594
     8  N    0.000000   0.000000   0.000000   0.000000   0.000000   0.000000
     9  C    0.008698  -0.012240  -0.042091  -0.028420  -0.023076  -0.028457
    10  C   -0.001902  -0.001465  -0.004056   0.005011   0.002453  -0.013525
    11  C   -0.036347  -0.067647  -0.000741   0.000011   0.000053   0.000092
    12  C    0.334181   0.366622  -0.046656   0.000035  -0.000163  -0.000004
    13  C    0.000167  -0.000392   0.000149   0.000009   0.000057  -0.000006
    14  C   -0.000509   0.000764  -0.004321   0.372718   0.363077   0.367324
    15  C    0.000160   0.001571   0.000002  -0.000001   0.000000   0.000001
    16  C    0.000008   0.000169   0.000000   0.000000   0.000000   0.000000
    17  C   -0.000003  -0.000049   0.000000   0.000000  -0.000003   0.000002
    18  C    0.000000   0.000003   0.000000   0.000000   0.000000   0.000000
    19  C    0.000000  -0.000004   0.000000   0.000000   0.000000   0.000000
    20  C    0.000000   0.000005   0.000000   0.000000   0.000000   0.000000
    21  C    0.000000   0.000000   0.000000   0.000000   0.000000   0.000000
    22  C    0.000000   0.000000   0.000000   0.000000   0.000000   0.000000
    23  C    0.000000   0.000000   0.000000   0.000000   0.000000   0.000000
    24  C    0.000000  -0.000003   0.000000   0.000000   0.000000   0.000000
    25  C    0.000000   0.000000   0.000000   0.000000   0.000000   0.000000
    26  H    0.000452   0.008541   0.006494  -0.003249  -0.003405   0.004585
    27  H    0.000129   0.000155   0.003092   0.000008  -0.000091   0.005509
    28  H    0.000001   0.000099   0.000015  -0.000044   0.000103   0.000178
    29  H    0.001994   0.000763   0.000045   0.000000   0.000000   0.000001
    30  H   -0.001863   0.003909   0.003033   0.000000   0.000000  -0.000007
    31  H    0.531579  -0.014379  -0.003703  -0.000005   0.000001   0.000013
    32  H   -0.014379   0.521092   0.005095  -0.000006  -0.000005   0.000007
    33  H   -0.003703   0.005095   0.497111  -0.000506   0.000073   0.004679
    34  H   -0.000005  -0.000006  -0.000506   0.453943  -0.017688  -0.022289
    35  H    0.000001  -0.000005   0.000073  -0.017688   0.490299  -0.024386
    36  H    0.000013   0.000007   0.004679  -0.022289  -0.024386   0.524793
    37  H    0.000000   0.000000   0.000000   0.000000   0.000000   0.000000
    38  H    0.000000   0.000000   0.000000   0.000000   0.000000   0.000000
    39  H    0.000000   0.000001   0.000000   0.000000   0.000000   0.000000
    40  H    0.000000   0.000000   0.000000   0.000000   0.000000   0.000000
    41  H    0.000000   0.000000   0.000000   0.000000   0.000000   0.000000
    42  H    0.000000   0.000000   0.000000   0.000000   0.000000   0.000000
    43  H    0.000000   0.000000   0.000000   0.000000   0.000000   0.000000
    44  H    0.000000   0.000000   0.000000   0.000000   0.000000   0.000000
              37         38         39         40         41         42
     1  F    0.000000   0.000406   0.001595  -0.000001   0.001672   0.000089
     2  F    0.000517   0.000000   0.000000   0.000000   0.000000   0.000000
     3  O    0.012005   0.000000   0.000000  -0.000058   0.000000   0.000000
     4  O    0.000000   0.000000   0.000000   0.000355   0.000000   0.000000
     5  O    0.000000  -0.000002   0.000000   0.013089   0.000000   0.000001
     6  N   -0.000071   0.000000  -0.000008   0.000000   0.000013   0.000000
     7  N    0.000000   0.000000   0.000000   0.000000   0.000000   0.000000
     8  N   -0.000053  -0.039519  -0.037177  -0.038201  -0.003228  -0.002294
     9  C    0.000000   0.000000   0.000000   0.000000   0.000000   0.000000
    10  C    0.000009   0.000000   0.000000   0.000000   0.000000   0.000000
    11  C   -0.000001  -0.000001   0.000048   0.000000  -0.000068   0.000002
    12  C    0.000000   0.000000  -0.000002   0.000000   0.000014   0.000000
    13  C   -0.001462  -0.000006   0.000825  -0.000005  -0.000804  -0.000003
    14  C    0.000000   0.000000   0.000000   0.000000   0.000000   0.000000
    15  C    0.000194  -0.000165   0.005595   0.000061  -0.002104   0.000289
    16  C    0.003849   0.001433  -0.006460  -0.004482   0.005844  -0.001258
    17  C   -0.047130  -0.000002   0.000046   0.000003  -0.000050   0.000001
    18  C   -0.007848   0.000167  -0.000755  -0.000441   0.000640  -0.000230
    19  C    0.316734   0.000019  -0.000048   0.000042   0.000055  -0.000002
    20  C    0.000005   0.361833   0.375172  -0.002714  -0.037022  -0.036773
    21  C    0.004269  -0.000059  -0.000013   0.004296   0.000007   0.000021
    22  C   -0.000123   0.002808   0.002248   0.310775  -0.000146   0.004983
    23  C    0.002559   0.000968  -0.000083  -0.009608  -0.000035   0.000082
    24  C   -0.000001  -0.042040  -0.036569  -0.000367   0.370945   0.372595
    25  C   -0.000014  -0.000012   0.000004  -0.005549   0.000000   0.000012
    26  H    0.000000   0.000000   0.000000   0.000000   0.000000   0.000000
    27  H    0.000000   0.000000   0.000000   0.000000   0.000000   0.000000
    28  H    0.000005   0.000000   0.000000   0.000000   0.000000   0.000000
    29  H    0.000000   0.000000   0.000007   0.000000   0.000245   0.000001
    30  H    0.000000   0.000000   0.000000   0.000000  -0.000001   0.000000
    31  H    0.000000   0.000000   0.000000   0.000000   0.000000   0.000000
    32  H    0.000000   0.000000   0.000001   0.000000   0.000000   0.000000
    33  H    0.000000   0.000000   0.000000   0.000000   0.000000   0.000000
    34  H    0.000000   0.000000   0.000000   0.000000   0.000000   0.000000
    35  H    0.000000   0.000000   0.000000   0.000000   0.000000   0.000000
    36  H    0.000000   0.000000   0.000000   0.000000   0.000000   0.000000
    37  H    0.413863   0.000000   0.000000   0.000000   0.000000   0.000000
    38  H    0.000000   0.526558  -0.028765   0.004723   0.003126  -0.004197
    39  H    0.000000  -0.028765   0.466017   0.000261  -0.003634   0.003012
    40  H    0.000000   0.004723   0.000261   0.452543   0.000005  -0.000109
    41  H    0.000000   0.003126  -0.003634   0.000005   0.478201  -0.022091
    42  H    0.000000  -0.004197   0.003012  -0.000109  -0.022091   0.484734
    43  H    0.000000  -0.001207  -0.001156   0.000005  -0.018329  -0.019808
    44  H    0.000000   0.000000   0.000000   0.000000   0.000000   0.000000
              43         44
     1  F   -0.000086   0.000000
     2  F    0.000000   0.000000
     3  O    0.000000   0.000300
     4  O    0.000000   0.249783
     5  O    0.000000   0.002972
     6  N    0.000000   0.000000
     7  N    0.000000   0.000000
     8  N    0.004563   0.000001
     9  C    0.000000   0.000000
    10  C    0.000000   0.000000
    11  C    0.000000   0.000000
    12  C    0.000000   0.000000
    13  C   -0.000019   0.000000
    14  C    0.000000   0.000000
    15  C   -0.000487   0.000000
    16  C    0.000398   0.000008
    17  C    0.000000   0.000000
    18  C    0.000015   0.000045
    19  C    0.000000  -0.000005
    20  C   -0.027205   0.000000
    21  C    0.000000   0.001471
    22  C   -0.000059  -0.000332
    23  C   -0.000003   0.004997
    24  C    0.370037   0.000000
    25  C    0.000000  -0.028870
    26  H    0.000000   0.000000
    27  H    0.000000   0.000000
    28  H    0.000000   0.000000
    29  H    0.000001   0.000000
    30  H    0.000000   0.000000
    31  H    0.000000   0.000000
    32  H    0.000000   0.000000
    33  H    0.000000   0.000000
    34  H    0.000000   0.000000
    35  H    0.000000   0.000000
    36  H    0.000000   0.000000
    37  H    0.000000   0.000000
    38  H   -0.001207   0.000000
    39  H   -0.001156   0.000000
    40  H    0.000005   0.000000
    41  H   -0.018329   0.000000
    42  H   -0.019808   0.000000
    43  H    0.467454   0.000000
    44  H    0.000000   0.361449
 Mulliken charges:
               1
     1  F   -0.267454
     2  F   -0.251765
     3  O   -0.285095
     4  O   -0.452339
     5  O   -0.353690
     6  N   -0.244110
     7  N   -0.344145
     8  N   -0.218501
     9  C   -0.043251
    10  C   -0.339521
    11  C   -0.342524
    12  C   -0.407328
    13  C    0.170973
    14  C   -0.703071
    15  C    0.163569
    16  C    0.217018
    17  C    0.294219
    18  C    0.264975
    19  C   -0.636146
    20  C   -0.321356
    21  C    0.157510
    22  C   -0.280409
    23  C    0.092182
    24  C   -0.630191
    25  C    0.206872
    26  H    0.216558
    27  H    0.197788
    28  H    0.228103
    29  H    0.215176
    30  H    0.215757
    31  H    0.211320
    32  H    0.229543
    33  H    0.267668
    34  H    0.240478
    35  H    0.209431
    36  H    0.188158
    37  H    0.302696
    38  H    0.213933
    39  H    0.259837
    40  H    0.275376
    41  H    0.226746
    42  H    0.220943
    43  H    0.225888
    44  H    0.408179
 Sum of Mulliken charges =   0.00000
 Mulliken charges with hydrogens summed into heavy atoms:
               1
     1  F   -0.267454
     2  F   -0.251765
     3  O   -0.285095
     4  O   -0.044160
     5  O   -0.353690
     6  N   -0.244110
     7  N   -0.076478
     8  N   -0.218501
     9  C    0.173307
    10  C    0.086370
    11  C    0.088409
    12  C    0.033534
    13  C    0.170973
    14  C   -0.065004
    15  C    0.163569
    16  C    0.217018
    17  C    0.294219
    18  C    0.264975
    19  C   -0.333450
    20  C    0.152414
    21  C    0.157510
    22  C   -0.005033
    23  C    0.092182
    24  C    0.043386
    25  C    0.206872
 Electronic spatial extent (au):  <R**2>=          10661.6950
 Charge=              0.0000 electrons
 Dipole moment (field-independent basis, Debye):
    X=              4.8411    Y=              4.8782    Z=             -0.7159  Tot=              6.9098
 Quadrupole moment (field-independent basis, Debye-Ang):
   XX=           -152.1541   YY=           -148.2743   ZZ=           -143.4125
   XY=            -11.0473   XZ=             -5.4035   YZ=             -6.8887
 Traceless Quadrupole moment (field-independent basis, Debye-Ang):
   XX=             -4.2071   YY=             -0.3273   ZZ=              4.5344
   XY=            -11.0473   XZ=             -5.4035   YZ=             -6.8887
 Octapole moment (field-independent basis, Debye-Ang**2):
  XXX=             78.8516  YYY=             71.2880  ZZZ=             -0.0799  XYY=             17.0915
  XXY=            -55.7119  XXZ=            -45.8088  XZZ=              6.1146  YZZ=              1.3518
  YYZ=              5.5737  XYZ=            -10.5923
 Hexadecapole moment (field-independent basis, Debye-Ang**3):
 XXXX=         -10371.1355 YYYY=          -2405.1228 ZZZZ=           -492.9652 XXXY=            305.4310
 XXXZ=           -186.7626 YYYX=           -124.8064 YYYZ=             -5.1128 ZZZX=            -11.7194
 ZZZY=             14.6820 XXYY=          -2330.5983 XXZZ=          -1850.8816 YYZZ=           -484.6205
 XXYZ=           -152.4687 YYXZ=            -25.6565 ZZXY=              5.0507
 N-N= 2.270589857572D+03 E-N=-7.460170433484D+03  KE= 1.241861515653D+03
 1\1\GINC-NODE046\FOpt\RM06\LANL2DZ\C17H19F2N3O3\SUPERCOMPUTO1\18-Aug-2
 020\0\\#opt M06/lanl2dz integral=ultrafine geom=connectivity\\Title Ca
 rd Required\\0,1\F,11.8987649668,-12.6346093575,-11.7966344129\F,12.51
 60396865,-8.0847399206,-10.4850656514\O,7.6229257631,-8.3811726872,-11
 .2201155283\O,5.1112477487,-9.4361067445,-11.737705401\O,4.9859413428,
 -11.6593615731,-12.1947855598\N,13.6131739381,-10.6420860402,-10.99255
 06837\N,16.2132719361,-11.5936106561,-11.6793563004\N,9.0278006613,-12
 .2451589765,-11.8544692972\C,15.6751402237,-10.3833521225,-12.31404831
 32\C,14.6349169232,-9.674356283,-11.4185142873\C,14.1532407088,-11.831
 0134946,-10.3134440018\C,15.1803804014,-12.5269177863,-11.2199195957\C
 ,12.2585057728,-10.3946944748,-11.1012350176\C,16.814364348,-9.4344753
 251,-12.6645124745\C,11.3375083429,-11.4011590691,-11.453928307\C,9.94
 30748381,-11.2189239386,-11.540270604\C,11.6792689266,-9.1180307098,-1
 0.8840148982\C,9.4443786771,-9.9082105094,-11.3281151038\C,10.33457503
 47,-8.8688091199,-11.0102400626\C,9.4004073809,-13.684252413,-11.94310
 40767\C,7.9992515059,-9.5592835395,-11.4194883134\C,7.7032790889,-11.9
 425507794,-11.9371790922\C,7.1436602722,-10.6969217427,-11.7534720838\
 C,9.6144858451,-14.2899982273,-10.5571083207\C,5.6802151915,-10.661234
 9143,-11.9162879078\H,15.1547384033,-10.7012600348,-13.2306763891\H,15
 .1465792693,-9.2402919048,-10.5401700593\H,14.1635935347,-8.8563462865
 ,-11.9707166551\H,13.3403556262,-12.5069579333,-10.0377017219\H,14.652
 288177,-11.4989839495,-9.3856111612\H,15.6548458426,-13.362079386,-10.
 6937885912\H,14.6567737604,-12.9301674286,-12.0968331845\H,16.92646613
 17,-11.3878787833,-10.9791062668\H,17.5368900723,-9.9377996944,-13.313
 915193\H,16.4442050096,-8.5387595012,-13.1754149659\H,17.3385244255,-9
 .1102752696,-11.7534154711\H,9.9213436214,-7.8803299396,-10.8302228347
 \H,8.5728839619,-14.1861672224,-12.4540261931\H,10.2868835405,-13.7937
 087908,-12.5659667353\H,7.0333594609,-12.7679588509,-12.1688309011\H,1
 0.4412844643,-13.7985034379,-10.0335958177\H,8.7091913049,-14.19134874
 46,-9.94766843\H,9.8572682787,-15.3535371308,-10.6449913896\H,4.138705
 5897,-9.5014153059,-11.8623827441\\Version=ES64L-G09RevD.01\State=1-A\
 HF=-1247.9553597\RMSD=8.788e-09\RMSF=4.676e-06\Dipole=1.9284698,-1.897
 0759,0.2691761\Quadrupole=-3.5230744,0.2534623,3.2696122,8.1533913,4.1
 757174,-4.9936299\PG=C01 [X(C17H19F2N3O3)]\\@


 GOOD SENSE ABOUT TRIVIALITIES IS BETTER THAN NONSENSE
 ABOUT THINGS THAT MATTER

                                       -- MAX BEERBOHM
 Job cpu time:       0 days  6 hours  0 minutes 14.6 seconds.
 File lengths (MBytes):  RWF=     46 Int=      0 D2E=      0 Chk=      7 Scr=      1
 Normal termination of Gaussian 09 at Tue Aug 18 10:04:21 2020.
