 Entering Gaussian System, Link 0=g09
 Input=ciprofloxacina.gjf
 Output=ciprofloxacina.log
 Initial command:
 /usr/local/cluster_programs/g09/l1.exe "/tmp/scratch/64195.prometeo/Gau-16077.inp" -scrdir="/tmp/scratch/64195.prometeo/"
 Entering Link 1 = /usr/local/cluster_programs/g09/l1.exe PID=     16078.
  
 Copyright (c) 1988,1990,1992,1993,1995,1998,2003,2009,2013,
            Gaussian, Inc.  All Rights Reserved.
  
 This is part of the Gaussian(R) 09 program.  It is based on
 the Gaussian(R) 03 system (copyright 2003, Gaussian, Inc.),
 the Gaussian(R) 98 system (copyright 1998, Gaussian, Inc.),
 the Gaussian(R) 94 system (copyright 1995, Gaussian, Inc.),
 the Gaussian 92(TM) system (copyright 1992, Gaussian, Inc.),
 the Gaussian 90(TM) system (copyright 1990, Gaussian, Inc.),
 the Gaussian 88(TM) system (copyright 1988, Gaussian, Inc.),
 the Gaussian 86(TM) system (copyright 1986, Carnegie Mellon
 University), and the Gaussian 82(TM) system (copyright 1983,
 Carnegie Mellon University). Gaussian is a federally registered
 trademark of Gaussian, Inc.
  
 This software contains proprietary and confidential information,
 including trade secrets, belonging to Gaussian, Inc.
  
 This software is provided under written license and may be
 used, copied, transmitted, or stored only in accord with that
 written license.
  
 The following legend is applicable only to US Government
 contracts under FAR:
  
                    RESTRICTED RIGHTS LEGEND
  
 Use, reproduction and disclosure by the US Government is
 subject to restrictions as set forth in subparagraphs (a)
 and (c) of the Commercial Computer Software - Restricted
 Rights clause in FAR 52.227-19.
  
 Gaussian, Inc.
 340 Quinnipiac St., Bldg. 40, Wallingford CT 06492
  
  
 ---------------------------------------------------------------
 Warning -- This program may not be used in any manner that
 competes with the business of Gaussian, Inc. or will provide
 assistance to any competitor of Gaussian, Inc.  The licensee
 of this program is prohibited from giving any competitor of
 Gaussian, Inc. access to this program.  By using this program,
 the user acknowledges that Gaussian, Inc. is engaged in the
 business of creating and licensing software in the field of
 computational chemistry and represents and warrants to the
 licensee that it is not a competitor of Gaussian, Inc. and that
 it will not use this program in any manner prohibited above.
 ---------------------------------------------------------------
  

 Cite this work as:
 Gaussian 09, Revision D.01,
 M. J. Frisch, G. W. Trucks, H. B. Schlegel, G. E. Scuseria, 
 M. A. Robb, J. R. Cheeseman, G. Scalmani, V. Barone, B. Mennucci, 
 G. A. Petersson, H. Nakatsuji, M. Caricato, X. Li, H. P. Hratchian, 
 A. F. Izmaylov, J. Bloino, G. Zheng, J. L. Sonnenberg, M. Hada, 
 M. Ehara, K. Toyota, R. Fukuda, J. Hasegawa, M. Ishida, T. Nakajima, 
 Y. Honda, O. Kitao, H. Nakai, T. Vreven, J. A. Montgomery, Jr., 
 J. E. Peralta, F. Ogliaro, M. Bearpark, J. J. Heyd, E. Brothers, 
 K. N. Kudin, V. N. Staroverov, T. Keith, R. Kobayashi, J. Normand, 
 K. Raghavachari, A. Rendell, J. C. Burant, S. S. Iyengar, J. Tomasi, 
 M. Cossi, N. Rega, J. M. Millam, M. Klene, J. E. Knox, J. B. Cross, 
 V. Bakken, C. Adamo, J. Jaramillo, R. Gomperts, R. E. Stratmann, 
 O. Yazyev, A. J. Austin, R. Cammi, C. Pomelli, J. W. Ochterski, 
 R. L. Martin, K. Morokuma, V. G. Zakrzewski, G. A. Voth, 
 P. Salvador, J. J. Dannenberg, S. Dapprich, A. D. Daniels, 
 O. Farkas, J. B. Foresman, J. V. Ortiz, J. Cioslowski, 
 and D. J. Fox, Gaussian, Inc., Wallingford CT, 2013.
 
 ******************************************
 Gaussian 09:  ES64L-G09RevD.01 24-Apr-2013
                21-Jul-2020 
 ******************************************
 %nprocshared=20
 Will use up to   20 processors via shared memory.
 -----------------------------------------------------
 #opt M06/lanl2dz integral=ultrafine geom=connectivity
 -----------------------------------------------------
 1/14=-1,18=20,19=15,26=4,38=1,57=2/1,3;
 2/9=110,12=2,17=6,18=5,40=1/2;
 3/5=6,6=3,11=2,16=1,25=1,30=1,71=1,74=-54,75=-5/1,2,3;
 4//1;
 5/5=2,38=5/2;
 6/7=2,8=2,9=2,10=2,28=1/1;
 7//1,2,3,16;
 1/14=-1,18=20,19=15,26=4/3(2);
 2/9=110/2;
 99//99;
 2/9=110/2;
 3/5=6,6=3,11=2,16=1,25=1,30=1,71=1,74=-54,75=-5/1,2,3;
 4/5=5,16=3,69=1/1;
 5/5=2,38=5/2;
 7//1,2,3,16;
 1/14=-1,18=20,19=15,26=4/3(-5);
 2/9=110/2;
 6/7=2,8=2,9=2,10=2,19=2,28=1/1;
 99/9=1/99;
 -------------------
 Title Card Required
 -------------------
 Symbolic Z-matrix:
 Charge =  0 Multiplicity = 1
 C                    -1.39943   2.65687  -0.60922 
 C                    -0.701     3.4804    0.46709 
 C                    -2.17466   3.71156   0.1636 
 H                    -2.45856   4.60568  -0.37702 
 H                    -2.88585   3.37203   0.90575 
 H                    -0.46747   2.96536   1.39014 
 H                     0.01751   4.22379   0.14326 
 H                    -1.15437   2.87199  -1.64419 
 N                     3.0729    0.15998  -0.6203 
 C                     3.59157   1.42236  -0.04616 
 C                     4.48447   1.09156   1.16936 
 N                     5.57657   0.2024    0.71212 
 C                     4.16612  -0.75304  -1.03574 
 C                     5.06073  -1.08056   0.17211 
 H                     6.27423   0.0524    1.44622 
 H                     2.76123   2.05968   0.26067 
 H                     4.19906   1.93811  -0.79817 
 H                     4.76842  -0.22498  -1.78371 
 H                     3.74626  -1.65701  -1.46602 
 H                     5.90948  -1.69402  -0.14719 
 H                     4.44434  -1.65387   0.88381 
 H                     4.92243   2.0143    1.56512 
 H                     3.84303   0.63703   1.94681 
 O                    -2.56408  -2.74332   0.34003 
 O                    -5.1676   -1.94765   0.38425 
 O                    -5.62229   0.26632   0.07357 
 N                    -1.67759   1.25153  -0.34049 
 C                     0.70374   0.68554  -0.48873 
 C                    -0.62851   0.30897  -0.2899 
 C                    -0.95385  -1.04114  -0.06112 
 C                    -2.96261   0.82514  -0.19921 
 C                    -3.33907  -0.46835   0.03126 
 C                    -2.34096  -1.53484   0.12888 
 C                     0.08837  -1.97201  -0.0048 
 C                     1.75889  -0.2417   -0.42977 
 C                     1.39267  -1.58803  -0.16696 
 C                    -4.79205  -0.6482    0.15782 
 H                    -3.73812   1.57643  -0.27446 
 H                    -0.16767  -3.00362   0.19864 
 H                    -6.16259  -1.95805   0.45273 
 F                     2.39087  -2.54078  -0.04207 
 H                     0.93273   1.71432  -0.71685 
 

 GradGradGradGradGradGradGradGradGradGradGradGradGradGradGradGradGradGrad
 Berny optimization.
 Initialization pass.
                           ----------------------------
                           !    Initial Parameters    !
                           ! (Angstroms and Degrees)  !
 --------------------------                            --------------------------
 ! Name  Definition              Value          Derivative Info.                !
 --------------------------------------------------------------------------------
 ! R1    R(1,2)                  1.5246         estimate D2E/DX2                !
 ! R2    R(1,3)                  1.5201         estimate D2E/DX2                !
 ! R3    R(1,8)                  1.0851         estimate D2E/DX2                !
 ! R4    R(1,27)                 1.4576         estimate D2E/DX2                !
 ! R5    R(2,3)                  1.5222         estimate D2E/DX2                !
 ! R6    R(2,6)                  1.0825         estimate D2E/DX2                !
 ! R7    R(2,7)                  1.0834         estimate D2E/DX2                !
 ! R8    R(3,4)                  1.0827         estimate D2E/DX2                !
 ! R9    R(3,5)                  1.0825         estimate D2E/DX2                !
 ! R10   R(9,10)                 1.4806         estimate D2E/DX2                !
 ! R11   R(9,13)                 1.4837         estimate D2E/DX2                !
 ! R12   R(9,35)                 1.3872         estimate D2E/DX2                !
 ! R13   R(10,11)                1.5441         estimate D2E/DX2                !
 ! R14   R(10,16)                1.0908         estimate D2E/DX2                !
 ! R15   R(10,17)                1.0957         estimate D2E/DX2                !
 ! R16   R(11,12)                1.4807         estimate D2E/DX2                !
 ! R17   R(11,22)                1.0954         estimate D2E/DX2                !
 ! R18   R(11,23)                1.1057         estimate D2E/DX2                !
 ! R19   R(12,14)                1.4845         estimate D2E/DX2                !
 ! R20   R(12,15)                1.0238         estimate D2E/DX2                !
 ! R21   R(13,14)                1.5384         estimate D2E/DX2                !
 ! R22   R(13,18)                1.0959         estimate D2E/DX2                !
 ! R23   R(13,19)                1.0856         estimate D2E/DX2                !
 ! R24   R(14,20)                1.0948         estimate D2E/DX2                !
 ! R25   R(14,21)                1.1023         estimate D2E/DX2                !
 ! R26   R(24,33)                1.2469         estimate D2E/DX2                !
 ! R27   R(25,37)                1.3715         estimate D2E/DX2                !
 ! R28   R(25,40)                0.9974         estimate D2E/DX2                !
 ! R29   R(26,37)                1.238          estimate D2E/DX2                !
 ! R30   R(27,29)                1.4112         estimate D2E/DX2                !
 ! R31   R(27,31)                1.3613         estimate D2E/DX2                !
 ! R32   R(28,29)                1.3987         estimate D2E/DX2                !
 ! R33   R(28,35)                1.4059         estimate D2E/DX2                !
 ! R34   R(28,42)                1.0784         estimate D2E/DX2                !
 ! R35   R(29,30)                1.4075         estimate D2E/DX2                !
 ! R36   R(30,33)                1.4846         estimate D2E/DX2                !
 ! R37   R(30,34)                1.3985         estimate D2E/DX2                !
 ! R38   R(31,32)                1.3667         estimate D2E/DX2                !
 ! R39   R(31,38)                1.0824         estimate D2E/DX2                !
 ! R40   R(32,33)                1.4639         estimate D2E/DX2                !
 ! R41   R(32,37)                1.4695         estimate D2E/DX2                !
 ! R42   R(34,36)                1.3693         estimate D2E/DX2                !
 ! R43   R(34,39)                1.0822         estimate D2E/DX2                !
 ! R44   R(35,36)                1.4198         estimate D2E/DX2                !
 ! R45   R(36,41)                1.3855         estimate D2E/DX2                !
 ! A1    A(2,1,8)              117.5671         estimate D2E/DX2                !
 ! A2    A(2,1,27)             118.5589         estimate D2E/DX2                !
 ! A3    A(3,1,8)              117.5514         estimate D2E/DX2                !
 ! A4    A(3,1,27)             118.5495         estimate D2E/DX2                !
 ! A5    A(8,1,27)             114.2093         estimate D2E/DX2                !
 ! A6    A(1,2,6)              116.3464         estimate D2E/DX2                !
 ! A7    A(1,2,7)              117.6095         estimate D2E/DX2                !
 ! A8    A(3,2,6)              116.8137         estimate D2E/DX2                !
 ! A9    A(3,2,7)              118.5703         estimate D2E/DX2                !
 ! A10   A(6,2,7)              115.9938         estimate D2E/DX2                !
 ! A11   A(1,3,4)              116.9263         estimate D2E/DX2                !
 ! A12   A(1,3,5)              117.7739         estimate D2E/DX2                !
 ! A13   A(2,3,4)              118.6062         estimate D2E/DX2                !
 ! A14   A(2,3,5)              116.8525         estimate D2E/DX2                !
 ! A15   A(4,3,5)              115.4079         estimate D2E/DX2                !
 ! A16   A(10,9,13)            112.0322         estimate D2E/DX2                !
 ! A17   A(10,9,35)            121.6986         estimate D2E/DX2                !
 ! A18   A(13,9,35)            123.9334         estimate D2E/DX2                !
 ! A19   A(9,10,11)            108.9757         estimate D2E/DX2                !
 ! A20   A(9,10,16)            109.9109         estimate D2E/DX2                !
 ! A21   A(9,10,17)            109.2324         estimate D2E/DX2                !
 ! A22   A(11,10,16)           110.1176         estimate D2E/DX2                !
 ! A23   A(11,10,17)           108.6943         estimate D2E/DX2                !
 ! A24   A(16,10,17)           109.8827         estimate D2E/DX2                !
 ! A25   A(10,11,12)           108.1843         estimate D2E/DX2                !
 ! A26   A(10,11,22)           109.5819         estimate D2E/DX2                !
 ! A27   A(10,11,23)           107.8264         estimate D2E/DX2                !
 ! A28   A(12,11,22)           108.8165         estimate D2E/DX2                !
 ! A29   A(12,11,23)           113.4634         estimate D2E/DX2                !
 ! A30   A(22,11,23)           108.9173         estimate D2E/DX2                !
 ! A31   A(11,12,14)           112.0264         estimate D2E/DX2                !
 ! A32   A(11,12,15)           111.6648         estimate D2E/DX2                !
 ! A33   A(14,12,15)           111.7778         estimate D2E/DX2                !
 ! A34   A(9,13,14)            109.856          estimate D2E/DX2                !
 ! A35   A(9,13,18)            107.4303         estimate D2E/DX2                !
 ! A36   A(9,13,19)            109.7805         estimate D2E/DX2                !
 ! A37   A(14,13,18)           108.5932         estimate D2E/DX2                !
 ! A38   A(14,13,19)           111.0277         estimate D2E/DX2                !
 ! A39   A(18,13,19)           110.0754         estimate D2E/DX2                !
 ! A40   A(12,14,13)           107.6796         estimate D2E/DX2                !
 ! A41   A(12,14,20)           108.7215         estimate D2E/DX2                !
 ! A42   A(12,14,21)           114.1377         estimate D2E/DX2                !
 ! A43   A(13,14,20)           109.9458         estimate D2E/DX2                !
 ! A44   A(13,14,21)           107.006          estimate D2E/DX2                !
 ! A45   A(20,14,21)           109.291          estimate D2E/DX2                !
 ! A46   A(37,25,40)           107.1201         estimate D2E/DX2                !
 ! A47   A(1,27,29)            120.578          estimate D2E/DX2                !
 ! A48   A(1,27,31)            120.0849         estimate D2E/DX2                !
 ! A49   A(29,27,31)           119.2626         estimate D2E/DX2                !
 ! A50   A(29,28,35)           122.0966         estimate D2E/DX2                !
 ! A51   A(29,28,42)           119.2877         estimate D2E/DX2                !
 ! A52   A(35,28,42)           118.601          estimate D2E/DX2                !
 ! A53   A(27,29,28)           121.5454         estimate D2E/DX2                !
 ! A54   A(27,29,30)           118.3383         estimate D2E/DX2                !
 ! A55   A(28,29,30)           120.1022         estimate D2E/DX2                !
 ! A56   A(29,30,33)           123.7644         estimate D2E/DX2                !
 ! A57   A(29,30,34)           118.2137         estimate D2E/DX2                !
 ! A58   A(33,30,34)           118.0216         estimate D2E/DX2                !
 ! A59   A(27,31,32)           125.0274         estimate D2E/DX2                !
 ! A60   A(27,31,38)           116.8545         estimate D2E/DX2                !
 ! A61   A(32,31,38)           118.1179         estimate D2E/DX2                !
 ! A62   A(31,32,33)           120.8579         estimate D2E/DX2                !
 ! A63   A(31,32,37)           113.7466         estimate D2E/DX2                !
 ! A64   A(33,32,37)           125.3951         estimate D2E/DX2                !
 ! A65   A(24,33,30)           120.7413         estimate D2E/DX2                !
 ! A66   A(24,33,32)           126.5374         estimate D2E/DX2                !
 ! A67   A(30,33,32)           112.7206         estimate D2E/DX2                !
 ! A68   A(30,34,36)           121.2273         estimate D2E/DX2                !
 ! A69   A(30,34,39)           117.758          estimate D2E/DX2                !
 ! A70   A(36,34,39)           120.9937         estimate D2E/DX2                !
 ! A71   A(9,35,28)            120.9428         estimate D2E/DX2                !
 ! A72   A(9,35,36)            122.9798         estimate D2E/DX2                !
 ! A73   A(28,35,36)           116.0773         estimate D2E/DX2                !
 ! A74   A(34,36,35)           122.2448         estimate D2E/DX2                !
 ! A75   A(34,36,41)           118.8647         estimate D2E/DX2                !
 ! A76   A(35,36,41)           118.8759         estimate D2E/DX2                !
 ! A77   A(25,37,26)           121.8373         estimate D2E/DX2                !
 ! A78   A(25,37,32)           113.6358         estimate D2E/DX2                !
 ! A79   A(26,37,32)           124.5269         estimate D2E/DX2                !
 ! D1    D(8,1,2,6)           -145.3509         estimate D2E/DX2                !
 ! D2    D(8,1,2,7)             -1.1637         estimate D2E/DX2                !
 ! D3    D(27,1,2,6)            -1.1747         estimate D2E/DX2                !
 ! D4    D(27,1,2,7)           143.0125         estimate D2E/DX2                !
 ! D5    D(8,1,3,4)              1.5802         estimate D2E/DX2                !
 ! D6    D(8,1,3,5)            145.8116         estimate D2E/DX2                !
 ! D7    D(27,1,3,4)          -142.5546         estimate D2E/DX2                !
 ! D8    D(27,1,3,5)             1.6768         estimate D2E/DX2                !
 ! D9    D(2,1,27,29)          -70.8322         estimate D2E/DX2                !
 ! D10   D(2,1,27,31)          112.3279         estimate D2E/DX2                !
 ! D11   D(3,1,27,29)         -140.2214         estimate D2E/DX2                !
 ! D12   D(3,1,27,31)           42.9387         estimate D2E/DX2                !
 ! D13   D(8,1,27,29)           74.4959         estimate D2E/DX2                !
 ! D14   D(8,1,27,31)         -102.344          estimate D2E/DX2                !
 ! D15   D(6,2,3,4)            147.2855         estimate D2E/DX2                !
 ! D16   D(6,2,3,5)              1.8092         estimate D2E/DX2                !
 ! D17   D(7,2,3,4)              0.7323         estimate D2E/DX2                !
 ! D18   D(7,2,3,5)           -144.744          estimate D2E/DX2                !
 ! D19   D(13,9,10,11)         -58.3885         estimate D2E/DX2                !
 ! D20   D(13,9,10,16)        -179.1446         estimate D2E/DX2                !
 ! D21   D(13,9,10,17)          60.2273         estimate D2E/DX2                !
 ! D22   D(35,9,10,11)         104.8901         estimate D2E/DX2                !
 ! D23   D(35,9,10,16)         -15.8661         estimate D2E/DX2                !
 ! D24   D(35,9,10,17)        -136.4942         estimate D2E/DX2                !
 ! D25   D(10,9,13,14)          58.6137         estimate D2E/DX2                !
 ! D26   D(10,9,13,18)         -59.3361         estimate D2E/DX2                !
 ! D27   D(10,9,13,19)        -179.0223         estimate D2E/DX2                !
 ! D28   D(35,9,13,14)        -104.2258         estimate D2E/DX2                !
 ! D29   D(35,9,13,18)         137.8244         estimate D2E/DX2                !
 ! D30   D(35,9,13,19)          18.1382         estimate D2E/DX2                !
 ! D31   D(10,9,35,28)          40.6895         estimate D2E/DX2                !
 ! D32   D(10,9,35,36)        -139.2927         estimate D2E/DX2                !
 ! D33   D(13,9,35,28)        -158.0615         estimate D2E/DX2                !
 ! D34   D(13,9,35,36)          21.9563         estimate D2E/DX2                !
 ! D35   D(9,10,11,12)          58.0937         estimate D2E/DX2                !
 ! D36   D(9,10,11,22)         176.5954         estimate D2E/DX2                !
 ! D37   D(9,10,11,23)         -64.9898         estimate D2E/DX2                !
 ! D38   D(16,10,11,12)        178.723          estimate D2E/DX2                !
 ! D39   D(16,10,11,22)        -62.7753         estimate D2E/DX2                !
 ! D40   D(16,10,11,23)         55.6395         estimate D2E/DX2                !
 ! D41   D(17,10,11,12)        -60.8586         estimate D2E/DX2                !
 ! D42   D(17,10,11,22)         57.6431         estimate D2E/DX2                !
 ! D43   D(17,10,11,23)        176.058          estimate D2E/DX2                !
 ! D44   D(10,11,12,14)        -61.5779         estimate D2E/DX2                !
 ! D45   D(10,11,12,15)        172.1694         estimate D2E/DX2                !
 ! D46   D(22,11,12,14)        179.4345         estimate D2E/DX2                !
 ! D47   D(22,11,12,15)         53.1818         estimate D2E/DX2                !
 ! D48   D(23,11,12,14)         58.016          estimate D2E/DX2                !
 ! D49   D(23,11,12,15)        -68.2367         estimate D2E/DX2                !
 ! D50   D(11,12,14,13)         60.9988         estimate D2E/DX2                !
 ! D51   D(11,12,14,20)       -179.9188         estimate D2E/DX2                !
 ! D52   D(11,12,14,21)        -57.6354         estimate D2E/DX2                !
 ! D53   D(15,12,14,13)       -172.81           estimate D2E/DX2                !
 ! D54   D(15,12,14,20)        -53.7276         estimate D2E/DX2                !
 ! D55   D(15,12,14,21)         68.5558         estimate D2E/DX2                !
 ! D56   D(9,13,14,12)         -57.5518         estimate D2E/DX2                !
 ! D57   D(9,13,14,20)        -175.8492         estimate D2E/DX2                !
 ! D58   D(9,13,14,21)          65.5628         estimate D2E/DX2                !
 ! D59   D(18,13,14,12)         59.6743         estimate D2E/DX2                !
 ! D60   D(18,13,14,20)        -58.6231         estimate D2E/DX2                !
 ! D61   D(18,13,14,21)       -177.2111         estimate D2E/DX2                !
 ! D62   D(19,13,14,12)       -179.1731         estimate D2E/DX2                !
 ! D63   D(19,13,14,20)         62.5294         estimate D2E/DX2                !
 ! D64   D(19,13,14,21)        -56.0586         estimate D2E/DX2                !
 ! D65   D(40,25,37,26)          0.0828         estimate D2E/DX2                !
 ! D66   D(40,25,37,32)       -179.9552         estimate D2E/DX2                !
 ! D67   D(1,27,29,28)           0.242          estimate D2E/DX2                !
 ! D68   D(1,27,29,30)        -178.3905         estimate D2E/DX2                !
 ! D69   D(31,27,29,28)        177.1077         estimate D2E/DX2                !
 ! D70   D(31,27,29,30)         -1.5249         estimate D2E/DX2                !
 ! D71   D(1,27,31,32)         178.8499         estimate D2E/DX2                !
 ! D72   D(1,27,31,38)          -1.3072         estimate D2E/DX2                !
 ! D73   D(29,27,31,32)          1.9685         estimate D2E/DX2                !
 ! D74   D(29,27,31,38)       -178.1886         estimate D2E/DX2                !
 ! D75   D(35,28,29,27)        179.4549         estimate D2E/DX2                !
 ! D76   D(35,28,29,30)         -1.9363         estimate D2E/DX2                !
 ! D77   D(42,28,29,27)         -1.9593         estimate D2E/DX2                !
 ! D78   D(42,28,29,30)        176.6495         estimate D2E/DX2                !
 ! D79   D(29,28,35,9)        -179.4843         estimate D2E/DX2                !
 ! D80   D(29,28,35,36)          0.4991         estimate D2E/DX2                !
 ! D81   D(42,28,35,9)           1.9206         estimate D2E/DX2                !
 ! D82   D(42,28,35,36)       -178.096          estimate D2E/DX2                !
 ! D83   D(27,29,30,33)          0.0959         estimate D2E/DX2                !
 ! D84   D(27,29,30,34)       -179.6846         estimate D2E/DX2                !
 ! D85   D(28,29,30,33)       -178.5571         estimate D2E/DX2                !
 ! D86   D(28,29,30,34)          1.6624         estimate D2E/DX2                !
 ! D87   D(29,30,33,24)       -179.3632         estimate D2E/DX2                !
 ! D88   D(29,30,33,32)          0.9261         estimate D2E/DX2                !
 ! D89   D(34,30,33,24)          0.4177         estimate D2E/DX2                !
 ! D90   D(34,30,33,32)       -179.293          estimate D2E/DX2                !
 ! D91   D(29,30,34,36)         -0.003          estimate D2E/DX2                !
 ! D92   D(29,30,34,39)        178.3459         estimate D2E/DX2                !
 ! D93   D(33,30,34,36)       -179.7963         estimate D2E/DX2                !
 ! D94   D(33,30,34,39)         -1.4475         estimate D2E/DX2                !
 ! D95   D(27,31,32,33)         -0.845          estimate D2E/DX2                !
 ! D96   D(27,31,32,37)        179.3399         estimate D2E/DX2                !
 ! D97   D(38,31,32,33)        179.3139         estimate D2E/DX2                !
 ! D98   D(38,31,32,37)         -0.5012         estimate D2E/DX2                !
 ! D99   D(31,32,33,24)        179.7233         estimate D2E/DX2                !
 ! D100  D(31,32,33,30)         -0.5861         estimate D2E/DX2                !
 ! D101  D(37,32,33,24)         -0.4843         estimate D2E/DX2                !
 ! D102  D(37,32,33,30)        179.2063         estimate D2E/DX2                !
 ! D103  D(31,32,37,25)        179.7784         estimate D2E/DX2                !
 ! D104  D(31,32,37,26)         -0.2608         estimate D2E/DX2                !
 ! D105  D(33,32,37,25)         -0.0269         estimate D2E/DX2                !
 ! D106  D(33,32,37,26)        179.9339         estimate D2E/DX2                !
 ! D107  D(30,34,36,35)         -1.4707         estimate D2E/DX2                !
 ! D108  D(30,34,36,41)        177.124          estimate D2E/DX2                !
 ! D109  D(39,34,36,35)       -179.7662         estimate D2E/DX2                !
 ! D110  D(39,34,36,41)         -1.1715         estimate D2E/DX2                !
 ! D111  D(9,35,36,34)        -178.812          estimate D2E/DX2                !
 ! D112  D(9,35,36,41)           2.5935         estimate D2E/DX2                !
 ! D113  D(28,35,36,34)          1.205          estimate D2E/DX2                !
 ! D114  D(28,35,36,41)       -177.3895         estimate D2E/DX2                !
 --------------------------------------------------------------------------------
 Trust Radius=3.00D-01 FncErr=1.00D-07 GrdErr=1.00D-06
 Number of steps in this run=    248 maximum allowed number of steps=    252.
 GradGradGradGradGradGradGradGradGradGradGradGradGradGradGradGradGradGrad

                          Input orientation:                          
 ---------------------------------------------------------------------
 Center     Atomic      Atomic             Coordinates (Angstroms)
 Number     Number       Type             X           Y           Z
 ---------------------------------------------------------------------
      1          6           0       -1.399432    2.656873   -0.609217
      2          6           0       -0.700995    3.480398    0.467089
      3          6           0       -2.174658    3.711560    0.163601
      4          1           0       -2.458557    4.605677   -0.377017
      5          1           0       -2.885851    3.372026    0.905754
      6          1           0       -0.467473    2.965363    1.390141
      7          1           0        0.017505    4.223795    0.143261
      8          1           0       -1.154367    2.871988   -1.644194
      9          7           0        3.072900    0.159978   -0.620299
     10          6           0        3.591574    1.422364   -0.046156
     11          6           0        4.484467    1.091563    1.169357
     12          7           0        5.576567    0.202396    0.712116
     13          6           0        4.166117   -0.753036   -1.035743
     14          6           0        5.060732   -1.080557    0.172113
     15          1           0        6.274226    0.052395    1.446220
     16          1           0        2.761225    2.059677    0.260667
     17          1           0        4.199064    1.938112   -0.798170
     18          1           0        4.768421   -0.224981   -1.783708
     19          1           0        3.746255   -1.657014   -1.466023
     20          1           0        5.909480   -1.694017   -0.147194
     21          1           0        4.444342   -1.653865    0.883809
     22          1           0        4.922427    2.014295    1.565120
     23          1           0        3.843034    0.637028    1.946811
     24          8           0       -2.564076   -2.743318    0.340028
     25          8           0       -5.167597   -1.947653    0.384247
     26          8           0       -5.622290    0.266322    0.073570
     27          7           0       -1.677586    1.251533   -0.340492
     28          6           0        0.703744    0.685535   -0.488729
     29          6           0       -0.628507    0.308972   -0.289900
     30          6           0       -0.953846   -1.041144   -0.061122
     31          6           0       -2.962605    0.825138   -0.199210
     32          6           0       -3.339066   -0.468348    0.031262
     33          6           0       -2.340963   -1.534839    0.128876
     34          6           0        0.088371   -1.972009   -0.004802
     35          6           0        1.758888   -0.241703   -0.429772
     36          6           0        1.392669   -1.588028   -0.166960
     37          6           0       -4.792054   -0.648195    0.157822
     38          1           0       -3.738121    1.576433   -0.274462
     39          1           0       -0.167672   -3.003621    0.198644
     40          1           0       -6.162594   -1.958046    0.452725
     41          9           0        2.390869   -2.540777   -0.042068
     42          1           0        0.932734    1.714319   -0.716850
 ---------------------------------------------------------------------
                    Distance matrix (angstroms):
                    1          2          3          4          5
     1  C    0.000000
     2  C    1.524612   0.000000
     3  C    1.520062   1.522243   0.000000
     4  H    2.230134   2.251176   1.082733   0.000000
     5  H    2.239648   2.231091   1.082529   1.830294   0.000000
     6  H    2.227363   1.082506   2.230626   3.126962   2.499712
     7  H    2.242583   1.083396   2.251306   2.558790   3.120318
     8  H    1.085131   2.243485   2.239196   2.512434   3.122549
     9  N    5.122144   5.142945   6.384755   7.100735   6.939222
    10  C    5.172155   4.788013   6.207564   6.844489   6.831131
    11  C    6.343011   5.752280   7.226332   7.933842   7.719559
    12  N    7.512319   7.086122   8.526230   9.227042   9.038615
    13  C    6.541004   6.623386   7.847068   8.546112   8.397369
    14  C    7.504171   7.354374   8.678440   9.443226   9.138485
    15  H    8.360213   7.833493   9.296141  10.015891   9.758026
    16  H    4.292366   3.748070   5.205870   5.842506   5.833341
    17  H    5.647608   5.290568   6.685391   7.184510   7.426674
    18  H    6.908467   6.979286   8.215517   8.805864   8.874657
    19  H    6.769183   7.064556   8.156867   8.882957   8.654559
    20  H    8.518445   8.417262   9.729858  10.476784  10.204476
    21  H    7.413588   7.280715   8.550886   9.403274   8.887733
    22  H    6.716141   5.914221   7.430584   8.060154   7.952824
    23  H    6.172236   5.560803   6.988934   7.801308   7.337704
    24  O    5.605312   6.497835   6.469020   7.384647   6.149879
    25  O    6.032222   7.030017   6.405705   7.131939   5.811826
    26  O    4.900353   5.891034   4.874827   5.389085   4.222088
    27  N    1.457588   2.563934   2.559868   3.444057   2.740351
    28  C    2.885141   3.270801   4.227004   5.037871   4.695424
    29  C    2.491772   3.261323   3.764818   4.671011   3.988420
    30  C    3.764875   4.559307   4.912136   5.852395   4.913610
    31  C    2.442717   3.550949   3.013955   3.818135   2.777314
    32  C    3.733551   4.768853   4.341082   5.166016   3.964671
    33  C    4.359095   5.287389   5.249149   6.162442   4.997776
    34  C    4.899533   5.529423   6.119854   7.063380   6.183350
    35  C    4.290563   4.550760   5.608312   6.425474   6.034589
    36  C    5.100059   5.520361   6.396931   7.296441   6.637664
    37  C    4.798094   5.820454   5.085102   5.773598   4.511673
    38  H    2.597860   3.660480   2.682365   3.290003   2.311586
    39  H    5.849023   6.511451   7.008771   7.967494   6.966877
    40  H    6.716615   7.707525   6.937698   7.582270   6.273113
    41  F    6.457833   6.787740   7.744550   8.642970   7.981440
    42  H    2.517735   2.681383   3.797374   4.469485   4.467933
                    6          7          8          9         10
     6  H    0.000000
     7  H    1.836727   0.000000
     8  H    3.112512   2.528965   0.000000
     9  N    4.944319   5.141310   5.125734   0.000000
    10  C    4.573801   4.545092   5.213357   1.480635   0.000000
    11  C    5.299206   5.551351   6.548468   2.462365   1.544072
    12  N    6.680129   6.884651   7.614748   2.836455   2.450203
    13  C    6.417286   6.585581   6.466727   1.483682   2.457997
    14  C    6.958025   7.319230   7.586108   2.473524   2.910443
    15  H    7.344320   7.631831   8.525536   3.811898   3.361640
    16  H    3.538428   3.496454   4.429470   2.117097   1.090774
    17  H    5.255523   4.857579   5.499737   2.112260   1.095703
    18  H    6.904071   6.787932   6.685065   2.092010   2.667921
    19  H    6.876012   7.146837   6.675305   2.114265   3.394483
    20  H    8.046039   8.355850   8.543263   3.421595   3.885193
    21  H    6.761625   7.395416   7.630183   2.726393   3.324941
    22  H    5.475963   5.564336   6.925515   3.411055   2.172041
    23  H    4.930669   5.545481   6.547089   2.722267   2.156827
    24  O    6.171509   7.432627   6.120137   6.413022   7.442719
    25  O    6.873188   8.064126   6.591626   8.564871   9.394963
    26  O    5.965762   6.890119   5.450004   8.723479   9.286876
    27  N    2.719683   3.455675   2.144591   4.882305   5.280139
    28  C    3.177974   3.659183   3.093259   2.430313   3.013030
    29  C    3.147202   3.991341   2.946132   3.719110   4.371285
    30  C    4.288918   5.357693   4.225982   4.239110   5.170100
    31  C    3.651340   4.533124   3.089870   6.086631   6.583112
    32  C    4.677924   5.770210   4.328730   6.475541   7.184327
    33  C    5.035134   6.222897   4.896112   5.722201   6.631039
    34  C    5.160666   6.197978   5.262728   3.719088   4.878105
    35  C    4.307440   4.827158   4.433616   1.387183   2.504999
    36  C    5.159269   5.980351   5.344282   2.466621   3.729911
    37  C    5.768744   6.846047   5.373241   7.944565   8.637942
    38  H    3.923923   4.613864   3.198502   6.965340   7.334868
    39  H    6.094121   7.230000   6.236377   4.602210   5.812160
    40  H    7.586376   8.746688   7.266955   9.535814  10.335369
    41  F    6.367018   7.171237   6.665848   2.844924   4.141038
    42  H    2.822251   2.806226   2.560499   2.646811   2.757625
                   11         12         13         14         15
    11  C    0.000000
    12  N    1.480665   0.000000
    13  C    2.892466   2.440744   0.000000
    14  C    2.458594   1.484472   1.538350   0.000000
    15  H    2.088004   1.023786   3.354547   2.092725   0.000000
    16  H    2.175437   3.402859   3.400846   3.893153   4.216147
    17  H    2.160848   2.681639   2.701815   3.285770   3.591589
    18  H    3.245691   2.657986   1.095931   2.154691   3.574468
    19  H    3.878770   3.398785   1.085634   2.177990   4.218279
    20  H    3.394617   2.108466   2.171239   1.094835   2.392062
    21  H    2.760529   2.181082   2.138593   1.102329   2.564392
    22  H    1.095387   2.106773   3.872288   3.396720   2.385487
    23  H    1.105655   2.172214   3.306401   2.753623   2.550114
    24  O    8.066973   8.665203   7.151885   7.805810   9.335698
    25  O   10.149659  10.962083   9.516391  10.267209  11.663760
    26  O   10.199427  11.217229   9.903665  10.768043  11.977355
    27  N    6.346348   7.404823   6.216955   7.148870   8.237814
    28  C    4.148250   5.041811   3.789029   4.747540   5.930865
    29  C    5.374419   6.286361   4.967148   5.874665   7.122336
    30  C    5.969738   6.692577   5.219858   6.019228   7.464110
    31  C    7.576466   8.610214   7.349088   8.254907   9.414012
    32  C    8.058303   8.966715   7.585995   8.423256   9.730810
    33  C    7.386954   8.126834   6.656549   7.415749   8.858679
    34  C    5.485415   5.946621   4.379126   5.054736   6.668469
    35  C    3.429809   4.009464   2.534445   3.459496   4.898379
    36  C    4.304087   4.635018   3.023906   3.718492   5.396567
    37  C    9.492302  10.418208   9.037943   9.862278  11.163035
    38  H    8.362456   9.467034   8.275443   9.202111  10.272805
    39  H    6.273373   6.598370   5.036921   5.570914   7.238351
    40  H   11.098360  11.939125  10.504754  11.261074  12.637381
    41  F    4.364012   4.271120   2.708305   3.050620   4.901021
    42  H    4.069448   5.088520   4.079743   5.063789   5.997700
                   16         17         18         19         20
    16  H    0.000000
    17  H    1.789775   0.000000
    18  H    3.664419   2.444263   0.000000
    19  H    4.214918   3.684562   1.787866   0.000000
    20  H    4.916104   4.067143   2.477551   2.533816   0.000000
    21  H    4.124510   3.973854   3.043416   2.451336   1.791985
    22  H    2.524768   2.472690   4.031467   4.904051   4.202127
    23  H    2.457096   3.058512   3.939057   4.113324   3.753509
    24  O    7.171742   8.303695   8.038519   6.652981   8.552168
    25  O    8.884829  10.209389  10.314654   9.108498  11.092718
    26  O    8.575223  10.000690  10.566822   9.687064  11.699290
    27  N    4.551652   5.934297   6.768602   6.256558   8.141081
    28  C    2.585167   3.725851   4.362065   3.962261   5.733986
    29  C    3.854656   5.120340   5.625247   4.938310   6.839415
    30  C    4.849783   5.997640   6.031398   4.944087   6.894846
    31  C    5.873483   7.272343   7.961291   7.264619   9.222946
    32  C    6.607351   7.956281   8.311720   7.338703   9.331115
    33  C    6.242615   7.462758   7.477770   6.293874   8.256595
    34  C    4.844493   5.728549   5.302781   3.951519   5.829482
    35  C    2.603408   3.292684   3.300108   2.650764   4.406414
    36  C    3.919383   4.550598   3.983400   2.689180   4.518098
    37  C    8.024660   9.404420   9.764801   8.749703  10.756840
    38  H    6.539219   7.962662   8.825201   8.239592  10.187652
    39  H    5.849724   6.669539   6.001298   4.461310   6.226270
    40  H    9.788439  11.140410  11.291246  10.097401  12.089855
    41  F    4.625256   4.888937   3.748196   2.155402   3.620591
    42  H    2.101949   3.274997   4.428495   4.454553   6.058817
                   21         22         23         24         25
    21  H    0.000000
    22  H    3.761402   0.000000
    23  H    2.596100   1.790989   0.000000
    24  O    7.113405   8.954522   7.420212   0.000000
    25  O    9.629395  10.904131   9.503350   2.722749   0.000000
    26  O   10.280111  10.792182   9.656025   4.299024   2.281436
    27  N    6.886091   6.911826   6.007214   4.148229   4.789594
    28  C    4.620468   4.876596   3.973581   4.808588   6.493721
    29  C    5.564541   6.096072   5.010507   3.668748   5.113724
    30  C    5.514413   6.819894   5.464258   2.377217   4.333106
    31  C    7.885509   8.167049   7.138453   3.630906   3.590373
    32  C    7.919200   8.761764   7.514901   2.423104   2.378333
    33  C    6.828210   8.210724   6.801743   1.246911   2.868011
    34  C    4.457054   6.459363   4.971254   2.783757   5.270403
    35  C    3.306261   4.367734   3.280850   5.053582   7.179769
    36  C    3.228182   5.332544   3.927237   4.153019   6.593197
    37  C    9.319305  10.170569   8.911623   3.063760   1.371456
    38  H    8.872943   8.864586   7.955529   4.518432   3.859596
    39  H    4.854067   7.277077   5.691764   2.414643   5.113587
    40  H   10.620049  11.827705  10.444103   3.684927   0.997405
    41  F    2.420870   5.453487   4.020307   4.973781   7.593678
    42  H    5.122320   4.605977   4.089681   5.763263   7.199756
                   26         27         28         29         30
    26  O    0.000000
    27  N    4.086903   0.000000
    28  C    6.364796   2.452154   0.000000
    29  C    5.007175   1.411222   1.398651   0.000000
    30  C    4.849946   2.420375   2.431434   1.407479   0.000000
    31  C    2.731411   1.361267   3.680411   2.392209   2.745394
    32  C    2.398883   2.420064   4.236290   2.838045   2.454772
    33  C    3.743574   2.902455   3.818604   2.550984   1.484563
    34  C    6.134160   3.690869   2.770453   2.407918   1.398534
    35  C    7.415742   3.747943   1.405907   2.454070   2.852005
    36  C    7.259898   4.185652   2.397341   2.774685   2.411725
    37  C    1.238035   3.682010   5.692158   4.295550   3.864477
    38  H    2.321123   2.087037   4.535391   3.358034   3.827455
    39  H    6.360898   4.547180   3.852495   3.379988   2.129992
    40  H    2.320237   5.571884   7.417645   6.026357   5.313737
    41  F    8.491401   5.569829   3.668104   4.159221   3.665567
    42  H    6.759423   2.677608   1.078365   2.143539   3.403196
                   31         32         33         34         35
    31  C    0.000000
    32  C    1.366728   0.000000
    33  C    2.462432   1.463947   0.000000
    34  C    4.143704   3.742943   2.471973   0.000000
    35  C    4.846009   5.123774   4.335097   2.442373   0.000000
    36  C    4.979239   4.866445   3.745712   1.369281   1.419781
    37  C    2.375935   1.469536   2.606688   5.059395   6.589791
    38  H    1.082373   2.105669   3.434348   5.225533   5.791964
    39  H    4.757030   4.063664   2.624001   1.082207   3.425599
    40  H    4.290811   3.220115   3.858607   6.267702   8.153190
    41  F    6.325643   6.093644   4.840596   2.372000   2.415669
    42  H    4.028928   4.855099   4.689283   3.848243   2.142654
                   36         37         38         39         40
    36  C    0.000000
    37  C    6.264149   0.000000
    38  H    6.029127   2.499323   0.000000
    39  H    2.138278   5.189856   5.826562   0.000000
    40  H    7.589659   1.918608   4.347345   6.090720   0.000000
    41  F    1.385544   7.430761   7.387147   2.611187   8.587556
    42  H    3.379262   6.254576   4.693784   4.930312   8.074519
                   41         42
    41  F    0.000000
    42  H    4.548333   0.000000
 Stoichiometry    C17H18FN3O3
 Framework group  C1[X(C17H18FN3O3)]
 Deg. of freedom   120
 Full point group                 C1      NOp   1
 Largest Abelian subgroup         C1      NOp   1
 Largest concise Abelian subgroup C1      NOp   1
                         Standard orientation:                         
 ---------------------------------------------------------------------
 Center     Atomic      Atomic             Coordinates (Angstroms)
 Number     Number       Type             X           Y           Z
 ---------------------------------------------------------------------
      1          6           0       -1.399432    2.656873   -0.609217
      2          6           0       -0.700995    3.480398    0.467089
      3          6           0       -2.174658    3.711560    0.163601
      4          1           0       -2.458557    4.605677   -0.377017
      5          1           0       -2.885851    3.372026    0.905754
      6          1           0       -0.467473    2.965363    1.390141
      7          1           0        0.017505    4.223795    0.143261
      8          1           0       -1.154367    2.871988   -1.644194
      9          7           0        3.072900    0.159978   -0.620299
     10          6           0        3.591574    1.422364   -0.046156
     11          6           0        4.484467    1.091563    1.169357
     12          7           0        5.576567    0.202396    0.712116
     13          6           0        4.166117   -0.753036   -1.035743
     14          6           0        5.060732   -1.080557    0.172113
     15          1           0        6.274226    0.052395    1.446220
     16          1           0        2.761225    2.059677    0.260667
     17          1           0        4.199064    1.938112   -0.798170
     18          1           0        4.768421   -0.224981   -1.783708
     19          1           0        3.746255   -1.657014   -1.466023
     20          1           0        5.909480   -1.694017   -0.147194
     21          1           0        4.444342   -1.653865    0.883809
     22          1           0        4.922427    2.014295    1.565120
     23          1           0        3.843034    0.637028    1.946811
     24          8           0       -2.564076   -2.743318    0.340028
     25          8           0       -5.167597   -1.947653    0.384247
     26          8           0       -5.622290    0.266322    0.073570
     27          7           0       -1.677586    1.251533   -0.340492
     28          6           0        0.703744    0.685535   -0.488729
     29          6           0       -0.628507    0.308972   -0.289900
     30          6           0       -0.953846   -1.041144   -0.061122
     31          6           0       -2.962605    0.825138   -0.199210
     32          6           0       -3.339066   -0.468348    0.031262
     33          6           0       -2.340963   -1.534839    0.128876
     34          6           0        0.088371   -1.972009   -0.004802
     35          6           0        1.758888   -0.241703   -0.429772
     36          6           0        1.392669   -1.588028   -0.166960
     37          6           0       -4.792054   -0.648195    0.157822
     38          1           0       -3.738121    1.576433   -0.274462
     39          1           0       -0.167672   -3.003621    0.198644
     40          1           0       -6.162594   -1.958046    0.452725
     41          9           0        2.390869   -2.540777   -0.042068
     42          1           0        0.932734    1.714319   -0.716850
 ---------------------------------------------------------------------
 Rotational constants (GHZ):      0.4532954      0.1342956      0.1073295
 Standard basis: LANL2DZ (5D, 7F)
 There are   252 symmetry adapted cartesian basis functions of A   symmetry.
 There are   252 symmetry adapted basis functions of A   symmetry.
   252 basis functions,   672 primitive gaussians,   252 cartesian basis functions
    87 alpha electrons       87 beta electrons
       nuclear repulsion energy      2067.4719544389 Hartrees.
 NAtoms=   42 NActive=   42 NUniq=   42 SFac= 1.00D+00 NAtFMM=   60 NAOKFM=F Big=F
 Integral buffers will be    131072 words long.
 Raffenetti 2 integral format.
 Two-electron integral symmetry is turned on.
 One-electron integrals computed using PRISM.
 PrsmSu:  requested number of processors reduced to:   8 ShMem   1 Linda.
   1 Symmetry operations used in ECPInt.
 ECPInt:  NShTT=   12246 NPrTT=   94254 LenC2=   11001 LenP2D=   47243.
 LDataN:  DoStor=T MaxTD1= 2 Len=   12
 Number of processors reduced to   8 by ecpmxn.
 NBasis=   252 RedAO= T EigKep=  2.02D-04  NBF=   252
 NBsUse=   252 1.00D-06 EigRej= -1.00D+00 NBFU=   252
 ExpMin= 1.15D-01 ExpMax= 1.00D+04 ExpMxC= 3.50D+02 IAcc=3 IRadAn=         5 AccDes= 0.00D+00
 Harris functional with IExCor= 1009 and IRadAn=       5 diagonalized for initial guess.
 HarFok:  IExCor= 1009 AccDes= 0.00D+00 IRadAn=         5 IDoV= 1 UseB2=F ITyADJ=14
 ICtDFT=  3500011 ScaDFX=  1.000000  1.000000  1.000000  1.000000
 FoFCou: FMM=F IPFlag=           0 FMFlag=      100000 FMFlg1=           0
         NFxFlg=           0 DoJE=T BraDBF=F KetDBF=T FulRan=T
         wScrn=  0.000000 ICntrl=     500 IOpCl=  0 I1Cent=   200000004 NGrid=           0
         NMat0=    1 NMatS0=      1 NMatT0=    0 NMatD0=    1 NMtDS0=    0 NMtDT0=    0
 Petite list used in FoFCou.
 Requested convergence on RMS density matrix=1.00D-08 within 128 cycles.
 Requested convergence on MAX density matrix=1.00D-06.
 Requested convergence on             energy=1.00D-06.
 No special actions if energy rises.
 Integral accuracy reduced to 1.0D-05 until final iterations.
 Initial convergence to 1.0D-05 achieved.  Increase integral accuracy.
 SCF Done:  E(RM06) =  -1147.50769185     A.U. after   17 cycles
            NFock= 17  Conv=0.56D-08     -V/T= 2.0048

 **********************************************************************

            Population analysis using the SCF density.

 **********************************************************************

 Orbital symmetries:
       Occupied  (A) (A) (A) (A) (A) (A) (A) (A) (A) (A) (A) (A)
                 (A) (A) (A) (A) (A) (A) (A) (A) (A) (A) (A) (A)
                 (A) (A) (A) (A) (A) (A) (A) (A) (A) (A) (A) (A)
                 (A) (A) (A) (A) (A) (A) (A) (A) (A) (A) (A) (A)
                 (A) (A) (A) (A) (A) (A) (A) (A) (A) (A) (A) (A)
                 (A) (A) (A) (A) (A) (A) (A) (A) (A) (A) (A) (A)
                 (A) (A) (A) (A) (A) (A) (A) (A) (A) (A) (A) (A)
                 (A) (A) (A)
       Virtual   (A) (A) (A) (A) (A) (A) (A) (A) (A) (A) (A) (A)
                 (A) (A) (A) (A) (A) (A) (A) (A) (A) (A) (A) (A)
                 (A) (A) (A) (A) (A) (A) (A) (A) (A) (A) (A) (A)
                 (A) (A) (A) (A) (A) (A) (A) (A) (A) (A) (A) (A)
                 (A) (A) (A) (A) (A) (A) (A) (A) (A) (A) (A) (A)
                 (A) (A) (A) (A) (A) (A) (A) (A) (A) (A) (A) (A)
                 (A) (A) (A) (A) (A) (A) (A) (A) (A) (A) (A) (A)
                 (A) (A) (A) (A) (A) (A) (A) (A) (A) (A) (A) (A)
                 (A) (A) (A) (A) (A) (A) (A) (A) (A) (A) (A) (A)
                 (A) (A) (A) (A) (A) (A) (A) (A) (A) (A) (A) (A)
                 (A) (A) (A) (A) (A) (A) (A) (A) (A) (A) (A) (A)
                 (A) (A) (A) (A) (A) (A) (A) (A) (A) (A) (A) (A)
                 (A) (A) (A) (A) (A) (A) (A) (A) (A) (A) (A) (A)
                 (A) (A) (A) (A) (A) (A) (A) (A) (A)
 The electronic state is 1-A.
 Alpha  occ. eigenvalues --  -24.80236 -19.25856 -19.21367 -19.18471 -14.48492
 Alpha  occ. eigenvalues --  -14.42865 -14.39453 -10.39880 -10.34827 -10.33820
 Alpha  occ. eigenvalues --  -10.33183 -10.33136 -10.33026 -10.32886 -10.29725
 Alpha  occ. eigenvalues --  -10.28661 -10.28652 -10.28570 -10.28555 -10.27685
 Alpha  occ. eigenvalues --  -10.27095 -10.27035 -10.27017 -10.26942  -1.25761
 Alpha  occ. eigenvalues --   -1.13101  -1.04476  -1.04213  -1.03079  -0.98209
 Alpha  occ. eigenvalues --   -0.92115  -0.90870  -0.88188  -0.83330  -0.79557
 Alpha  occ. eigenvalues --   -0.79036  -0.78335  -0.72137  -0.70080  -0.68164
 Alpha  occ. eigenvalues --   -0.66565  -0.65946  -0.64783  -0.63161  -0.61430
 Alpha  occ. eigenvalues --   -0.60586  -0.57571  -0.56968  -0.56517  -0.54316
 Alpha  occ. eigenvalues --   -0.53290  -0.52091  -0.50310  -0.49510  -0.48676
 Alpha  occ. eigenvalues --   -0.48562  -0.48277  -0.47601  -0.47423  -0.47147
 Alpha  occ. eigenvalues --   -0.46308  -0.45699  -0.45205  -0.44347  -0.43704
 Alpha  occ. eigenvalues --   -0.42740  -0.42302  -0.41442  -0.41153  -0.40303
 Alpha  occ. eigenvalues --   -0.39512  -0.39317  -0.38326  -0.38010  -0.37560
 Alpha  occ. eigenvalues --   -0.37160  -0.35847  -0.34903  -0.34177  -0.32485
 Alpha  occ. eigenvalues --   -0.31058  -0.28979  -0.28747  -0.24474  -0.24235
 Alpha  occ. eigenvalues --   -0.23906  -0.21697
 Alpha virt. eigenvalues --   -0.05322  -0.03969   0.00237   0.03067   0.07583
 Alpha virt. eigenvalues --    0.08445   0.09389   0.09567   0.10082   0.10476
 Alpha virt. eigenvalues --    0.10690   0.11754   0.11995   0.12517   0.13380
 Alpha virt. eigenvalues --    0.13595   0.14874   0.15285   0.16371   0.16502
 Alpha virt. eigenvalues --    0.16985   0.17778   0.18471   0.18970   0.20065
 Alpha virt. eigenvalues --    0.20437   0.20722   0.21229   0.21467   0.22052
 Alpha virt. eigenvalues --    0.22375   0.22764   0.23298   0.23650   0.23986
 Alpha virt. eigenvalues --    0.24281   0.25363   0.25420   0.25899   0.26476
 Alpha virt. eigenvalues --    0.26919   0.27534   0.28242   0.29134   0.29690
 Alpha virt. eigenvalues --    0.29894   0.30367   0.30464   0.31346   0.31540
 Alpha virt. eigenvalues --    0.32415   0.32753   0.33754   0.34064   0.34325
 Alpha virt. eigenvalues --    0.34751   0.35299   0.35832   0.36387   0.37493
 Alpha virt. eigenvalues --    0.37853   0.38573   0.38775   0.39553   0.40254
 Alpha virt. eigenvalues --    0.40384   0.41305   0.41898   0.42455   0.43116
 Alpha virt. eigenvalues --    0.43504   0.44374   0.45346   0.45516   0.46429
 Alpha virt. eigenvalues --    0.46845   0.46880   0.47947   0.48580   0.49466
 Alpha virt. eigenvalues --    0.49855   0.50479   0.50653   0.52046   0.53704
 Alpha virt. eigenvalues --    0.54324   0.54417   0.55467   0.56532   0.58019
 Alpha virt. eigenvalues --    0.58976   0.59761   0.61344   0.62234   0.63231
 Alpha virt. eigenvalues --    0.64294   0.64791   0.67692   0.69043   0.70392
 Alpha virt. eigenvalues --    0.70935   0.72402   0.73605   0.74641   0.75189
 Alpha virt. eigenvalues --    0.77143   0.78923   0.82487   0.83493   0.85000
 Alpha virt. eigenvalues --    0.86063   0.88333   0.88879   0.90184   0.90640
 Alpha virt. eigenvalues --    0.92255   0.93105   0.94375   0.96350   0.98260
 Alpha virt. eigenvalues --    0.99739   1.00968   1.01999   1.03144   1.03723
 Alpha virt. eigenvalues --    1.04864   1.05533   1.07036   1.07642   1.09401
 Alpha virt. eigenvalues --    1.10195   1.11261   1.11912   1.13719   1.14117
 Alpha virt. eigenvalues --    1.15530   1.15963   1.16753   1.17396   1.22160
 Alpha virt. eigenvalues --    1.23455   1.24711   1.25822   1.26338   1.27554
 Alpha virt. eigenvalues --    1.28329   1.30242   1.32024   1.33832   1.34683
 Alpha virt. eigenvalues --    1.42605   1.45892   1.49463   1.50819   1.55243
 Alpha virt. eigenvalues --    1.58346   1.63730   1.66952   1.70537   1.78892
 Alpha virt. eigenvalues --    1.85516   1.87615   1.97892   2.01470   2.24637
          Condensed to atoms (all electrons):
               1          2          3          4          5          6
     1  C    5.330382   0.147914   0.152345  -0.012437  -0.020924  -0.017791
     2  C    0.147914   5.560413   0.133613  -0.010175  -0.021214   0.387501
     3  C    0.152345   0.133613   5.568202   0.341507   0.390073  -0.023832
     4  H   -0.012437  -0.010175   0.341507   0.437948  -0.009231   0.001023
     5  H   -0.020924  -0.021214   0.390073  -0.009231   0.418026  -0.003367
     6  H   -0.017791   0.387501  -0.023832   0.001023  -0.003367   0.418693
     7  H   -0.015825   0.347784  -0.012363  -0.004479   0.000846  -0.009566
     8  H    0.366795  -0.025041  -0.029999  -0.000493   0.000651   0.001331
     9  N   -0.000142  -0.000024  -0.000002   0.000000   0.000000  -0.000001
    10  C   -0.000019   0.000178  -0.000004   0.000000   0.000000   0.000027
    11  C   -0.000002   0.000001   0.000000   0.000000   0.000000  -0.000002
    12  N    0.000000   0.000000   0.000000   0.000000   0.000000   0.000000
    13  C   -0.000002   0.000004   0.000000   0.000000   0.000000   0.000000
    14  C    0.000000   0.000000   0.000000   0.000000   0.000000   0.000000
    15  H    0.000000   0.000000   0.000000   0.000000   0.000000   0.000000
    16  H   -0.000012   0.000548   0.000014   0.000000   0.000000   0.000006
    17  H    0.000002   0.000007   0.000000   0.000000   0.000000   0.000000
    18  H    0.000000   0.000000   0.000000   0.000000   0.000000   0.000000
    19  H    0.000000   0.000000   0.000000   0.000000   0.000000   0.000000
    20  H    0.000000   0.000000   0.000000   0.000000   0.000000   0.000000
    21  H    0.000000   0.000000   0.000000   0.000000   0.000000   0.000000
    22  H    0.000000  -0.000001   0.000000   0.000000   0.000000   0.000000
    23  H    0.000001   0.000006   0.000000   0.000000   0.000000   0.000000
    24  O    0.000004   0.000001   0.000000   0.000000   0.000000   0.000000
    25  O    0.000004   0.000000  -0.000001   0.000000   0.000000   0.000000
    26  O    0.000272   0.000001   0.000010   0.000001   0.000026   0.000000
    27  N    0.287395  -0.034503  -0.020206   0.000596  -0.006792  -0.002583
    28  C    0.006004   0.003581  -0.004130   0.000117   0.000092  -0.001354
    29  C   -0.028433  -0.004916   0.001084  -0.000071  -0.000205   0.000900
    30  C    0.007014   0.000026  -0.000184  -0.000009  -0.000040   0.000033
    31  C   -0.065195  -0.008031   0.013682   0.000140   0.002213   0.000680
    32  C    0.002566  -0.001249   0.000991  -0.000026   0.000669  -0.000033
    33  C    0.000905   0.000076  -0.000085  -0.000001   0.000029  -0.000009
    34  C    0.000586   0.000038   0.000018   0.000000   0.000002  -0.000001
    35  C   -0.002648   0.000905  -0.000387   0.000004   0.000001   0.000277
    36  C   -0.000086  -0.000020  -0.000003   0.000000   0.000000   0.000008
    37  C    0.000191   0.000008   0.000083   0.000002   0.000076   0.000000
    38  H    0.001392  -0.000064   0.002615   0.000097  -0.000707   0.000100
    39  H    0.000003  -0.000001   0.000000   0.000000   0.000000   0.000000
    40  H    0.000000   0.000000   0.000000   0.000000   0.000000   0.000000
    41  F   -0.000001   0.000000   0.000000   0.000000   0.000000   0.000000
    42  H    0.014196   0.000843   0.000399   0.000011  -0.000002  -0.000595
               7          8          9         10         11         12
     1  C   -0.015825   0.366795  -0.000142  -0.000019  -0.000002   0.000000
     2  C    0.347784  -0.025041  -0.000024   0.000178   0.000001   0.000000
     3  C   -0.012363  -0.029999  -0.000002  -0.000004   0.000000   0.000000
     4  H   -0.004479  -0.000493   0.000000   0.000000   0.000000   0.000000
     5  H    0.000846   0.000651   0.000000   0.000000   0.000000   0.000000
     6  H   -0.009566   0.001331  -0.000001   0.000027  -0.000002   0.000000
     7  H    0.438355  -0.002243   0.000001   0.000005  -0.000002   0.000000
     8  H   -0.002243   0.443072   0.000004   0.000001   0.000000   0.000000
     9  N    0.000001   0.000004   6.916563   0.287890  -0.079222  -0.012876
    10  C    0.000005   0.000001   0.287890   5.359352   0.262509  -0.069756
    11  C   -0.000002   0.000000  -0.079222   0.262509   5.365193   0.315280
    12  N    0.000000   0.000000  -0.012876  -0.069756   0.315280   6.779793
    13  C    0.000000   0.000000   0.282086  -0.045171  -0.001281  -0.063133
    14  C    0.000000   0.000000  -0.067330   0.004765  -0.087537   0.295865
    15  H    0.000000   0.000000  -0.000587   0.005735  -0.039322   0.322024
    16  H    0.000006  -0.000001  -0.036929   0.350259  -0.029722   0.003497
    17  H    0.000001   0.000000  -0.050257   0.344554  -0.044038   0.003374
    18  H    0.000000   0.000000  -0.048075  -0.008602  -0.002403   0.000961
    19  H    0.000000   0.000000  -0.034831   0.005555  -0.000409   0.003182
    20  H    0.000000   0.000000   0.005064  -0.001527   0.007936  -0.035596
    21  H    0.000000   0.000000  -0.004279   0.000252  -0.008872  -0.064396
    22  H    0.000000   0.000000   0.005083  -0.017951   0.354678  -0.036777
    23  H    0.000000   0.000000  -0.001789  -0.057108   0.352380  -0.070443
    24  O    0.000000   0.000000   0.000000   0.000000   0.000000   0.000000
    25  O    0.000000   0.000000   0.000000   0.000000   0.000000   0.000000
    26  O    0.000000  -0.000001   0.000000   0.000000   0.000000   0.000000
    27  N    0.000780  -0.033860  -0.000004  -0.000039  -0.000002   0.000000
    28  C   -0.000591   0.002768  -0.046687   0.005624  -0.000409   0.000157
    29  C    0.001386   0.000583  -0.001431   0.000952  -0.000070   0.000000
    30  C    0.000032  -0.000287   0.001712   0.000176  -0.000012   0.000000
    31  C    0.000084   0.000156   0.000006   0.000003   0.000000   0.000000
    32  C    0.000009   0.000229  -0.000003   0.000000   0.000000   0.000000
    33  C    0.000001   0.000007   0.000048  -0.000012   0.000002   0.000000
    34  C    0.000003  -0.000042   0.006566  -0.000411   0.000167  -0.000018
    35  C   -0.000264   0.000651   0.157403  -0.077306  -0.008066  -0.002139
    36  C   -0.000008   0.000012  -0.007918  -0.000629   0.002507  -0.000145
    37  C    0.000000   0.000000   0.000000   0.000000   0.000000   0.000000
    38  H   -0.000013   0.000425   0.000000   0.000000   0.000000   0.000000
    39  H    0.000000   0.000000  -0.000060   0.000003   0.000000   0.000000
    40  H    0.000000   0.000000   0.000000   0.000000   0.000000   0.000000
    41  F    0.000000   0.000000   0.001987   0.000089  -0.000316   0.000153
    42  H   -0.000081  -0.001673  -0.008086  -0.002170  -0.000190  -0.000005
              13         14         15         16         17         18
     1  C   -0.000002   0.000000   0.000000  -0.000012   0.000002   0.000000
     2  C    0.000004   0.000000   0.000000   0.000548   0.000007   0.000000
     3  C    0.000000   0.000000   0.000000   0.000014   0.000000   0.000000
     4  H    0.000000   0.000000   0.000000   0.000000   0.000000   0.000000
     5  H    0.000000   0.000000   0.000000   0.000000   0.000000   0.000000
     6  H    0.000000   0.000000   0.000000   0.000006   0.000000   0.000000
     7  H    0.000000   0.000000   0.000000   0.000006   0.000001   0.000000
     8  H    0.000000   0.000000   0.000000  -0.000001   0.000000   0.000000
     9  N    0.282086  -0.067330  -0.000587  -0.036929  -0.050257  -0.048075
    10  C   -0.045171   0.004765   0.005735   0.350259   0.344554  -0.008602
    11  C   -0.001281  -0.087537  -0.039322  -0.029722  -0.044038  -0.002403
    12  N   -0.063133   0.295865   0.322024   0.003497   0.003374   0.000961
    13  C    5.336014   0.247217   0.005538   0.005929  -0.002580   0.358475
    14  C    0.247217   5.404942  -0.037918  -0.000661  -0.003816  -0.047466
    15  H    0.005538  -0.037918   0.462771  -0.000104   0.000014   0.000074
    16  H    0.005929  -0.000661  -0.000104   0.524965  -0.020199   0.000209
    17  H   -0.002580  -0.003816   0.000014  -0.020199   0.524976   0.005225
    18  H    0.358475  -0.047466   0.000074   0.000209   0.005225   0.516104
    19  H    0.363132  -0.028192  -0.000105  -0.000068   0.000214  -0.020266
    20  H   -0.018654   0.353071  -0.004737  -0.000001   0.000081  -0.002323
    21  H   -0.060295   0.366653  -0.000067   0.000108   0.000223   0.003843
    22  H   -0.001325   0.007503  -0.004967  -0.000112  -0.003434   0.000038
    23  H   -0.000139  -0.006264  -0.000012   0.001046   0.004938   0.000196
    24  O    0.000000   0.000000   0.000000   0.000000   0.000000   0.000000
    25  O    0.000000   0.000000   0.000000   0.000000   0.000000   0.000000
    26  O    0.000000   0.000000   0.000000   0.000000   0.000000   0.000000
    27  N    0.000000   0.000000   0.000000   0.000009   0.000000   0.000000
    28  C    0.004790  -0.000590  -0.000003   0.013732  -0.001495  -0.000522
    29  C    0.000823   0.000012   0.000000   0.001737   0.000014  -0.000035
    30  C   -0.000190   0.000015   0.000000   0.000121  -0.000001   0.000000
    31  C    0.000000   0.000000   0.000000   0.000002   0.000000   0.000000
    32  C    0.000000   0.000000   0.000000   0.000000   0.000000   0.000000
    33  C    0.000006  -0.000001   0.000000   0.000001   0.000000   0.000000
    34  C   -0.002207  -0.000306   0.000000  -0.000020   0.000013   0.000097
    35  C   -0.050421  -0.014787   0.000097  -0.013517   0.009321   0.008327
    36  C   -0.011166   0.000618  -0.000018  -0.000875  -0.000130   0.001808
    37  C    0.000000   0.000000   0.000000   0.000000   0.000000   0.000000
    38  H    0.000000   0.000000   0.000000   0.000000   0.000000   0.000000
    39  H    0.000022  -0.000006   0.000000   0.000000   0.000000   0.000000
    40  H    0.000000   0.000000   0.000000   0.000000   0.000000   0.000000
    41  F    0.003984  -0.003053   0.000000   0.000002  -0.000002   0.000423
    42  H   -0.000121  -0.000034   0.000000   0.003084   0.000300   0.000020
              19         20         21         22         23         24
     1  C    0.000000   0.000000   0.000000   0.000000   0.000001   0.000004
     2  C    0.000000   0.000000   0.000000  -0.000001   0.000006   0.000001
     3  C    0.000000   0.000000   0.000000   0.000000   0.000000   0.000000
     4  H    0.000000   0.000000   0.000000   0.000000   0.000000   0.000000
     5  H    0.000000   0.000000   0.000000   0.000000   0.000000   0.000000
     6  H    0.000000   0.000000   0.000000   0.000000   0.000000   0.000000
     7  H    0.000000   0.000000   0.000000   0.000000   0.000000   0.000000
     8  H    0.000000   0.000000   0.000000   0.000000   0.000000   0.000000
     9  N   -0.034831   0.005064  -0.004279   0.005083  -0.001789   0.000000
    10  C    0.005555  -0.001527   0.000252  -0.017951  -0.057108   0.000000
    11  C   -0.000409   0.007936  -0.008872   0.354678   0.352380   0.000000
    12  N    0.003182  -0.035596  -0.064396  -0.036777  -0.070443   0.000000
    13  C    0.363132  -0.018654  -0.060295  -0.001325  -0.000139   0.000000
    14  C   -0.028192   0.353071   0.366653   0.007503  -0.006264   0.000000
    15  H   -0.000105  -0.004737  -0.000067  -0.004967  -0.000012   0.000000
    16  H   -0.000068  -0.000001   0.000108  -0.000112   0.001046   0.000000
    17  H    0.000214   0.000081   0.000223  -0.003434   0.004938   0.000000
    18  H   -0.020266  -0.002323   0.003843   0.000038   0.000196   0.000000
    19  H    0.481735  -0.000161   0.001345  -0.000002   0.000128   0.000000
    20  H   -0.000161   0.511589  -0.027286  -0.000061  -0.000136   0.000000
    21  H    0.001345  -0.027286   0.554072  -0.000187   0.009996   0.000000
    22  H   -0.000002  -0.000061  -0.000187   0.518237  -0.034513   0.000000
    23  H    0.000128  -0.000136   0.009996  -0.034513   0.609197   0.000000
    24  O    0.000000   0.000000   0.000000   0.000000   0.000000   7.790734
    25  O    0.000000   0.000000   0.000000   0.000000   0.000000  -0.006537
    26  O    0.000000   0.000000   0.000000   0.000000   0.000000   0.000007
    27  N    0.000000   0.000000   0.000000   0.000000   0.000000   0.000266
    28  C    0.000897   0.000007   0.000459  -0.000098   0.000721  -0.000277
    29  C    0.000054   0.000000   0.000001  -0.000006   0.000097  -0.007360
    30  C   -0.000012   0.000000  -0.000006   0.000000   0.000000  -0.123984
    31  C    0.000000   0.000000   0.000000   0.000000   0.000000   0.000885
    32  C    0.000000   0.000000   0.000000   0.000000   0.000000  -0.074290
    33  C    0.000000   0.000000   0.000001   0.000000   0.000000   0.676161
    34  C   -0.000431   0.000000  -0.000051   0.000000   0.000003   0.023981
    35  C   -0.000700   0.000414   0.006834  -0.000132   0.005778   0.000040
    36  C   -0.001572  -0.000176  -0.001451   0.000023  -0.001087   0.001385
    37  C    0.000000   0.000000   0.000000   0.000000   0.000000  -0.007812
    38  H    0.000000   0.000000   0.000000   0.000000   0.000000  -0.000056
    39  H    0.000004   0.000000   0.000002   0.000000   0.000000   0.011585
    40  H    0.000000   0.000000   0.000000   0.000000   0.000000   0.000395
    41  F   -0.002641  -0.000013   0.002110   0.000000   0.000003   0.000004
    42  H   -0.000004   0.000000   0.000002   0.000003   0.000055   0.000001
              25         26         27         28         29         30
     1  C    0.000004   0.000272   0.287395   0.006004  -0.028433   0.007014
     2  C    0.000000   0.000001  -0.034503   0.003581  -0.004916   0.000026
     3  C   -0.000001   0.000010  -0.020206  -0.004130   0.001084  -0.000184
     4  H    0.000000   0.000001   0.000596   0.000117  -0.000071  -0.000009
     5  H    0.000000   0.000026  -0.006792   0.000092  -0.000205  -0.000040
     6  H    0.000000   0.000000  -0.002583  -0.001354   0.000900   0.000033
     7  H    0.000000   0.000000   0.000780  -0.000591   0.001386   0.000032
     8  H    0.000000  -0.000001  -0.033860   0.002768   0.000583  -0.000287
     9  N    0.000000   0.000000  -0.000004  -0.046687  -0.001431   0.001712
    10  C    0.000000   0.000000  -0.000039   0.005624   0.000952   0.000176
    11  C    0.000000   0.000000  -0.000002  -0.000409  -0.000070  -0.000012
    12  N    0.000000   0.000000   0.000000   0.000157   0.000000   0.000000
    13  C    0.000000   0.000000   0.000000   0.004790   0.000823  -0.000190
    14  C    0.000000   0.000000   0.000000  -0.000590   0.000012   0.000015
    15  H    0.000000   0.000000   0.000000  -0.000003   0.000000   0.000000
    16  H    0.000000   0.000000   0.000009   0.013732   0.001737   0.000121
    17  H    0.000000   0.000000   0.000000  -0.001495   0.000014  -0.000001
    18  H    0.000000   0.000000   0.000000  -0.000522  -0.000035   0.000000
    19  H    0.000000   0.000000   0.000000   0.000897   0.000054  -0.000012
    20  H    0.000000   0.000000   0.000000   0.000007   0.000000   0.000000
    21  H    0.000000   0.000000   0.000000   0.000459   0.000001  -0.000006
    22  H    0.000000   0.000000   0.000000  -0.000098  -0.000006   0.000000
    23  H    0.000000   0.000000   0.000000   0.000721   0.000097   0.000000
    24  O   -0.006537   0.000007   0.000266  -0.000277  -0.007360  -0.123984
    25  O    8.083418  -0.084044   0.000014  -0.000004  -0.000364  -0.000861
    26  O   -0.084044   7.887693   0.000874  -0.000017  -0.000469  -0.000017
    27  N    0.000014   0.000874   6.598155  -0.055356   0.213543  -0.013604
    28  C   -0.000004  -0.000017  -0.055356   5.804210   0.425489  -0.154784
    29  C   -0.000364  -0.000469   0.213543   0.425489   5.268507   0.125188
    30  C   -0.000861  -0.000017  -0.013604  -0.154784   0.125188   5.768979
    31  C   -0.005421   0.005555   0.381709   0.006960  -0.123327   0.022709
    32  C   -0.029159  -0.063336  -0.056991  -0.004872   0.027605  -0.161778
    33  C    0.001889  -0.003999  -0.009389   0.007276   0.008300   0.096300
    34  C    0.000146   0.000023   0.012366  -0.084984  -0.126798   0.465383
    35  C    0.000000   0.000000  -0.007849   0.401979  -0.046505  -0.105744
    36  C    0.000000   0.000000   0.000968  -0.168262  -0.078189  -0.063126
    37  C    0.248745   0.589421   0.008469  -0.000429  -0.000471  -0.026086
    38  H    0.000346   0.013363  -0.035581  -0.000100  -0.003814  -0.000106
    39  H    0.000000   0.000000  -0.000062   0.000722   0.001328  -0.010659
    40  H    0.244725   0.003327   0.000001   0.000000   0.000007   0.000060
    41  F    0.000000   0.000000   0.000000   0.000938  -0.001027  -0.002390
    42  H    0.000000   0.000000  -0.003397   0.311265  -0.007528  -0.001814
              31         32         33         34         35         36
     1  C   -0.065195   0.002566   0.000905   0.000586  -0.002648  -0.000086
     2  C   -0.008031  -0.001249   0.000076   0.000038   0.000905  -0.000020
     3  C    0.013682   0.000991  -0.000085   0.000018  -0.000387  -0.000003
     4  H    0.000140  -0.000026  -0.000001   0.000000   0.000004   0.000000
     5  H    0.002213   0.000669   0.000029   0.000002   0.000001   0.000000
     6  H    0.000680  -0.000033  -0.000009  -0.000001   0.000277   0.000008
     7  H    0.000084   0.000009   0.000001   0.000003  -0.000264  -0.000008
     8  H    0.000156   0.000229   0.000007  -0.000042   0.000651   0.000012
     9  N    0.000006  -0.000003   0.000048   0.006566   0.157403  -0.007918
    10  C    0.000003   0.000000  -0.000012  -0.000411  -0.077306  -0.000629
    11  C    0.000000   0.000000   0.000002   0.000167  -0.008066   0.002507
    12  N    0.000000   0.000000   0.000000  -0.000018  -0.002139  -0.000145
    13  C    0.000000   0.000000   0.000006  -0.002207  -0.050421  -0.011166
    14  C    0.000000   0.000000  -0.000001  -0.000306  -0.014787   0.000618
    15  H    0.000000   0.000000   0.000000   0.000000   0.000097  -0.000018
    16  H    0.000002   0.000000   0.000001  -0.000020  -0.013517  -0.000875
    17  H    0.000000   0.000000   0.000000   0.000013   0.009321  -0.000130
    18  H    0.000000   0.000000   0.000000   0.000097   0.008327   0.001808
    19  H    0.000000   0.000000   0.000000  -0.000431  -0.000700  -0.001572
    20  H    0.000000   0.000000   0.000000   0.000000   0.000414  -0.000176
    21  H    0.000000   0.000000   0.000001  -0.000051   0.006834  -0.001451
    22  H    0.000000   0.000000   0.000000   0.000000  -0.000132   0.000023
    23  H    0.000000   0.000000   0.000000   0.000003   0.005778  -0.001087
    24  O    0.000885  -0.074290   0.676161   0.023981   0.000040   0.001385
    25  O   -0.005421  -0.029159   0.001889   0.000146   0.000000   0.000000
    26  O    0.005555  -0.063336  -0.003999   0.000023   0.000000   0.000000
    27  N    0.381709  -0.056991  -0.009389   0.012366  -0.007849   0.000968
    28  C    0.006960  -0.004872   0.007276  -0.084984   0.401979  -0.168262
    29  C   -0.123327   0.027605   0.008300  -0.126798  -0.046505  -0.078189
    30  C    0.022709  -0.161778   0.096300   0.465383  -0.105744  -0.063126
    31  C    5.530841   0.283706  -0.064746   0.003002   0.000187   0.000141
    32  C    0.283706   5.913340   0.044030  -0.028117  -0.000026  -0.001541
    33  C   -0.064746   0.044030   5.205454  -0.072622  -0.000305  -0.025378
    34  C    0.003002  -0.028117  -0.072622   5.862184  -0.154432   0.430323
    35  C    0.000187  -0.000026  -0.000305  -0.154432   5.282638   0.320639
    36  C    0.000141  -0.001541  -0.025378   0.430323   0.320639   5.131201
    37  C   -0.025185   0.082073  -0.035689   0.000299  -0.000012   0.000002
    38  H    0.312125  -0.021415   0.003548   0.000058  -0.000009   0.000003
    39  H   -0.000123   0.003062   0.007505   0.319557  -0.001969  -0.046960
    40  H   -0.000438   0.005122   0.001814  -0.000004   0.000000   0.000000
    41  F    0.000000  -0.000004   0.000027  -0.070610  -0.042476   0.289221
    42  H    0.000950  -0.000016  -0.000076   0.000565  -0.038805   0.000306
              37         38         39         40         41         42
     1  C    0.000191   0.001392   0.000003   0.000000  -0.000001   0.014196
     2  C    0.000008  -0.000064  -0.000001   0.000000   0.000000   0.000843
     3  C    0.000083   0.002615   0.000000   0.000000   0.000000   0.000399
     4  H    0.000002   0.000097   0.000000   0.000000   0.000000   0.000011
     5  H    0.000076  -0.000707   0.000000   0.000000   0.000000  -0.000002
     6  H    0.000000   0.000100   0.000000   0.000000   0.000000  -0.000595
     7  H    0.000000  -0.000013   0.000000   0.000000   0.000000  -0.000081
     8  H    0.000000   0.000425   0.000000   0.000000   0.000000  -0.001673
     9  N    0.000000   0.000000  -0.000060   0.000000   0.001987  -0.008086
    10  C    0.000000   0.000000   0.000003   0.000000   0.000089  -0.002170
    11  C    0.000000   0.000000   0.000000   0.000000  -0.000316  -0.000190
    12  N    0.000000   0.000000   0.000000   0.000000   0.000153  -0.000005
    13  C    0.000000   0.000000   0.000022   0.000000   0.003984  -0.000121
    14  C    0.000000   0.000000  -0.000006   0.000000  -0.003053  -0.000034
    15  H    0.000000   0.000000   0.000000   0.000000   0.000000   0.000000
    16  H    0.000000   0.000000   0.000000   0.000000   0.000002   0.003084
    17  H    0.000000   0.000000   0.000000   0.000000  -0.000002   0.000300
    18  H    0.000000   0.000000   0.000000   0.000000   0.000423   0.000020
    19  H    0.000000   0.000000   0.000004   0.000000  -0.002641  -0.000004
    20  H    0.000000   0.000000   0.000000   0.000000  -0.000013   0.000000
    21  H    0.000000   0.000000   0.000002   0.000000   0.002110   0.000002
    22  H    0.000000   0.000000   0.000000   0.000000   0.000000   0.000003
    23  H    0.000000   0.000000   0.000000   0.000000   0.000003   0.000055
    24  O   -0.007812  -0.000056   0.011585   0.000395   0.000004   0.000001
    25  O    0.248745   0.000346   0.000000   0.244725   0.000000   0.000000
    26  O    0.589421   0.013363   0.000000   0.003327   0.000000   0.000000
    27  N    0.008469  -0.035581  -0.000062   0.000001   0.000000  -0.003397
    28  C   -0.000429  -0.000100   0.000722   0.000000   0.000938   0.311265
    29  C   -0.000471  -0.003814   0.001328   0.000007  -0.001027  -0.007528
    30  C   -0.026086  -0.000106  -0.010659   0.000060  -0.002390  -0.001814
    31  C   -0.025185   0.312125  -0.000123  -0.000438   0.000000   0.000950
    32  C    0.082073  -0.021415   0.003062   0.005122  -0.000004  -0.000016
    33  C   -0.035689   0.003548   0.007505   0.001814   0.000027  -0.000076
    34  C    0.000299   0.000058   0.319557  -0.000004  -0.070610   0.000565
    35  C   -0.000012  -0.000009  -0.001969   0.000000  -0.042476  -0.038805
    36  C    0.000002   0.000003  -0.046960   0.000000   0.289221   0.000306
    37  C    5.000226  -0.006056  -0.000011  -0.028873   0.000000   0.000000
    38  H   -0.006056   0.442931   0.000000   0.000000   0.000000   0.000007
    39  H   -0.000011   0.000000   0.418615   0.000000   0.000492   0.000006
    40  H   -0.028873   0.000000   0.000000   0.370687   0.000000   0.000000
    41  F    0.000000   0.000000   0.000492   0.000000   9.086332  -0.000034
    42  H    0.000000   0.000007   0.000006   0.000000  -0.000034   0.482344
 Mulliken charges:
               1
     1  C   -0.154453
     2  C   -0.478209
     3  C   -0.513438
     4  H    0.255478
     5  H    0.249780
     6  H    0.248552
     7  H    0.256141
     8  H    0.276958
     9  N   -0.263879
    10  C   -0.347223
    11  C   -0.358775
    12  N   -0.369002
    13  C   -0.351333
    14  C   -0.382700
    15  H    0.291586
    16  H    0.196945
    17  H    0.232695
    18  H    0.233890
    19  H    0.233149
    20  H    0.212509
    21  H    0.220988
    22  H    0.213998
    23  H    0.186947
    24  O   -0.285131
    25  O   -0.452894
    26  O   -0.348690
    27  N   -0.224926
    28  C   -0.472823
    29  C    0.353408
    30  C    0.177947
    31  C   -0.273272
    32  C    0.079454
    33  C    0.158932
    34  C   -0.584327
    35  C    0.373002
    36  C    0.229574
    37  C    0.201031
    38  H    0.290910
    39  H    0.296946
    40  H    0.403177
    41  F   -0.263197
    42  H    0.250273
 Sum of Mulliken charges =   0.00000
 Mulliken charges with hydrogens summed into heavy atoms:
               1
     1  C    0.122505
     2  C    0.026485
     3  C   -0.008181
     9  N   -0.263879
    10  C    0.082417
    11  C    0.042169
    12  N   -0.077416
    13  C    0.115706
    14  C    0.050797
    24  O   -0.285131
    25  O   -0.049717
    26  O   -0.348690
    27  N   -0.224926
    28  C   -0.222550
    29  C    0.353408
    30  C    0.177947
    31  C    0.017638
    32  C    0.079454
    33  C    0.158932
    34  C   -0.287381
    35  C    0.373002
    36  C    0.229574
    37  C    0.201031
    41  F   -0.263197
 Electronic spatial extent (au):  <R**2>=           9546.6361
 Charge=              0.0000 electrons
 Dipole moment (field-independent basis, Debye):
    X=              5.0378    Y=              6.9437    Z=              0.1206  Tot=              8.5796
 Quadrupole moment (field-independent basis, Debye-Ang):
   XX=           -143.1564   YY=           -138.0325   ZZ=           -135.3974
   XY=             -7.0417   XZ=              6.0780   YZ=              0.8276
[...]
    30  C   -0.000160   0.000004   0.000000   0.000156   0.000008  -0.000009
    31  C    0.000000   0.000000   0.000000   0.000002   0.000000   0.000000
    32  C    0.000000   0.000000   0.000000   0.000000   0.000000   0.000000
    33  C    0.000006   0.000000   0.000000   0.000000   0.000000   0.000000
    34  C   -0.003692  -0.000095   0.000000  -0.000141   0.000030   0.000383
    35  C   -0.036774  -0.001382   0.000043  -0.022592   0.001004   0.004154
    36  C   -0.021827  -0.002434  -0.000001  -0.002960  -0.000184   0.005627
    37  C    0.000000   0.000000   0.000000   0.000000   0.000000   0.000000
    38  H    0.000000   0.000000   0.000000   0.000000   0.000000   0.000000
    39  H    0.000001  -0.000001   0.000000   0.000000   0.000000   0.000000
    40  H    0.000000   0.000000   0.000000   0.000000   0.000000   0.000000
    41  F   -0.004933  -0.000005   0.000000   0.000000  -0.000002   0.000269
    42  H    0.000195  -0.000044   0.000000   0.000171   0.000192   0.000080
              19         20         21         22         23         24
     1  C    0.000000   0.000000   0.000000   0.000000   0.000000   0.000003
     2  C    0.000000   0.000000   0.000000  -0.000001   0.000001   0.000001
     3  C    0.000000   0.000000   0.000000   0.000000   0.000000   0.000000
     4  H    0.000000   0.000000   0.000000   0.000000   0.000000   0.000000
     5  H    0.000000   0.000000   0.000000   0.000000   0.000000   0.000000
     6  H    0.000000   0.000000   0.000000   0.000000   0.000000   0.000000
     7  H    0.000000   0.000000   0.000000   0.000000   0.000000   0.000000
     8  H    0.000000   0.000000   0.000000   0.000000   0.000000   0.000000
     9  N   -0.032392   0.004063  -0.002452   0.003935   0.000270   0.000000
    10  C    0.005998  -0.001435   0.000587  -0.015372  -0.064001   0.000000
    11  C   -0.000390   0.008334  -0.007535   0.346514   0.368240   0.000000
    12  N    0.003317  -0.033788  -0.075428  -0.035235  -0.076451   0.000000
    13  C    0.361645  -0.014599  -0.057263  -0.000891   0.000041   0.000000
    14  C   -0.019594   0.344004   0.367507   0.007641  -0.005491   0.000000
    15  H   -0.000078  -0.005297   0.000511  -0.004843   0.000263   0.000000
    16  H   -0.000053  -0.000006   0.000149  -0.000479   0.000267   0.000000
    17  H    0.000000   0.000084   0.000208  -0.002647   0.005116   0.000000
    18  H   -0.026385  -0.002310   0.004931   0.000057   0.000273   0.000000
    19  H    0.466601  -0.000462   0.000226  -0.000004   0.000114   0.000000
    20  H   -0.000462   0.523316  -0.031604  -0.000074  -0.000094   0.000000
    21  H    0.000226  -0.031604   0.588652  -0.000141   0.011451   0.000000
    22  H   -0.000004  -0.000074  -0.000141   0.525531  -0.034198   0.000000
    23  H    0.000114  -0.000094   0.011451  -0.034198   0.604707   0.000000
    24  O    0.000000   0.000000   0.000000   0.000000   0.000000   7.797125
    25  O    0.000000   0.000000   0.000000   0.000000   0.000000  -0.005292
    26  O    0.000000   0.000000   0.000000   0.000000   0.000000   0.000008
    27  N    0.000000   0.000000   0.000000   0.000000   0.000000   0.000258
    28  C    0.000539   0.000005   0.000013  -0.000017   0.000244  -0.000349
    29  C    0.000040   0.000000  -0.000001  -0.000001   0.000017  -0.007621
    30  C    0.000047   0.000000   0.000000   0.000000   0.000000  -0.123363
    31  C    0.000000   0.000000   0.000000   0.000000   0.000000   0.001133
    32  C    0.000000   0.000000   0.000000   0.000000   0.000000  -0.074500
    33  C    0.000001   0.000000   0.000000   0.000000   0.000000   0.673028
    34  C   -0.001049   0.000002   0.000018   0.000000  -0.000004   0.024334
    35  C   -0.004231   0.000023   0.000638   0.000012   0.001045   0.000047
    36  C   -0.003317   0.000074   0.000274   0.000013  -0.000243   0.001568
    37  C    0.000000   0.000000   0.000000   0.000000   0.000000  -0.007451
    38  H    0.000000   0.000000   0.000000   0.000000   0.000000  -0.000054
    39  H    0.000008   0.000000   0.000000   0.000000   0.000000   0.010246
    40  H    0.000000   0.000000   0.000000   0.000000   0.000000   0.000302
    41  F    0.004608  -0.000001   0.000069   0.000000   0.000001   0.000003
    42  H   -0.000015   0.000000   0.000002   0.000012   0.000032   0.000001
              25         26         27         28         29         30
     1  C    0.000003   0.000262   0.290372   0.007418  -0.031321   0.007015
     2  C    0.000000   0.000002  -0.034224   0.001422  -0.003443   0.000110
     3  C   -0.000001  -0.000007  -0.020191  -0.004415   0.001290  -0.000073
     4  H    0.000000   0.000000   0.000625   0.000127  -0.000068  -0.000008
     5  H    0.000000   0.000028  -0.006759   0.000109  -0.000205  -0.000052
     6  H    0.000000   0.000000  -0.002522  -0.001842   0.001128   0.000073
     7  H    0.000000   0.000000   0.000754  -0.000480   0.001298   0.000024
     8  H    0.000000  -0.000001  -0.035857   0.002960   0.000624  -0.000323
     9  N    0.000000   0.000000  -0.000014  -0.090753  -0.008252   0.001921
    10  C    0.000000   0.000000  -0.000023   0.022317   0.000730  -0.000140
    11  C    0.000000   0.000000   0.000000  -0.001622  -0.000032  -0.000026
    12  N    0.000000   0.000000   0.000000   0.000358   0.000006   0.000000
    13  C    0.000000   0.000000  -0.000003   0.004942   0.000722  -0.000160
    14  C    0.000000   0.000000   0.000000  -0.000049  -0.000005   0.000004
    15  H    0.000000   0.000000   0.000000  -0.000005   0.000000   0.000000
    16  H    0.000000   0.000000  -0.000006   0.019883   0.003696   0.000156
    17  H    0.000000   0.000000   0.000001   0.000934   0.000172   0.000008
    18  H    0.000000   0.000000   0.000000  -0.001143  -0.000150  -0.000009
    19  H    0.000000   0.000000   0.000000   0.000539   0.000040   0.000047
    20  H    0.000000   0.000000   0.000000   0.000005   0.000000   0.000000
    21  H    0.000000   0.000000   0.000000   0.000013  -0.000001   0.000000
    22  H    0.000000   0.000000   0.000000  -0.000017  -0.000001   0.000000
    23  H    0.000000   0.000000   0.000000   0.000244   0.000017   0.000000
    24  O   -0.005292   0.000008   0.000258  -0.000349  -0.007621  -0.123363
    25  O    8.070477  -0.086835   0.000013  -0.000003  -0.000324  -0.000731
    26  O   -0.086835   7.899654   0.000890  -0.000016  -0.000434  -0.000045
    27  N    0.000013   0.000890   6.597285  -0.061805   0.212169  -0.008113
    28  C   -0.000003  -0.000016  -0.061805   5.765805   0.430384  -0.143124
    29  C   -0.000324  -0.000434   0.212169   0.430384   5.313871   0.139031
    30  C   -0.000731  -0.000045  -0.008113  -0.143124   0.139031   5.771091
    31  C   -0.005995   0.006889   0.382899   0.008815  -0.121638   0.019949
    32  C   -0.028268  -0.066312  -0.057172  -0.005643   0.018809  -0.153746
    33  C    0.003590  -0.003706  -0.008983   0.004258  -0.002592   0.091210
    34  C    0.000124   0.000022   0.012990  -0.084635  -0.127793   0.445242
    35  C    0.000000   0.000000  -0.008772   0.407417  -0.064352  -0.106503
    36  C    0.000000   0.000000   0.001004  -0.161945  -0.075514  -0.072258
    37  C    0.255628   0.590558   0.008222  -0.000389  -0.000181  -0.026085
    38  H    0.000325   0.012273  -0.035969  -0.000037  -0.003816  -0.000047
    39  H    0.000000   0.000000  -0.000061   0.000536   0.000218  -0.016730
    40  H    0.249304   0.003064   0.000001   0.000000   0.000007   0.000042
    41  F    0.000000   0.000000   0.000000   0.001069  -0.001066  -0.000951
    42  H    0.000000   0.000000  -0.003651   0.307039  -0.012309  -0.001842
              31         32         33         34         35         36
     1  C   -0.065129   0.002722   0.000824   0.000666  -0.002429  -0.000120
     2  C   -0.008396  -0.001265   0.000077   0.000023   0.000693  -0.000016
     3  C    0.013899   0.001022  -0.000100   0.000023  -0.000438  -0.000007
     4  H    0.000108  -0.000036  -0.000001   0.000000   0.000004   0.000000
     5  H    0.002202   0.000653   0.000030   0.000002   0.000001   0.000000
     6  H    0.000570  -0.000045  -0.000006   0.000000   0.000328   0.000009
     7  H    0.000107   0.000010   0.000000   0.000003  -0.000280  -0.000008
     8  H    0.000016   0.000251   0.000019  -0.000041   0.000777   0.000012
     9  N   -0.000007  -0.000001   0.000064   0.008465   0.208944   0.019002
    10  C    0.000022  -0.000002  -0.000026   0.000164  -0.076836   0.001741
    11  C    0.000000   0.000000   0.000000   0.000002   0.003972  -0.000067
    12  N    0.000000   0.000000   0.000000  -0.000001  -0.001727  -0.000086
    13  C    0.000000   0.000000   0.000006  -0.003692  -0.036774  -0.021827
    14  C    0.000000   0.000000   0.000000  -0.000095  -0.001382  -0.002434
    15  H    0.000000   0.000000   0.000000   0.000000   0.000043  -0.000001
    16  H    0.000002   0.000000   0.000000  -0.000141  -0.022592  -0.002960
    17  H    0.000000   0.000000   0.000000   0.000030   0.001004  -0.000184
    18  H    0.000000   0.000000   0.000000   0.000383   0.004154   0.005627
    19  H    0.000000   0.000000   0.000001  -0.001049  -0.004231  -0.003317
    20  H    0.000000   0.000000   0.000000   0.000002   0.000023   0.000074
    21  H    0.000000   0.000000   0.000000   0.000018   0.000638   0.000274
    22  H    0.000000   0.000000   0.000000   0.000000   0.000012   0.000013
    23  H    0.000000   0.000000   0.000000  -0.000004   0.001045  -0.000243
    24  O    0.001133  -0.074500   0.673028   0.024334   0.000047   0.001568
    25  O   -0.005995  -0.028268   0.003590   0.000124   0.000000   0.000000
    26  O    0.006889  -0.066312  -0.003706   0.000022   0.000000   0.000000
    27  N    0.382899  -0.057172  -0.008983   0.012990  -0.008772   0.001004
    28  C    0.008815  -0.005643   0.004258  -0.084635   0.407417  -0.161945
    29  C   -0.121638   0.018809  -0.002592  -0.127793  -0.064352  -0.075514
    30  C    0.019949  -0.153746   0.091210   0.445242  -0.106503  -0.072258
    31  C    5.525590   0.283393  -0.068236   0.002955  -0.000047   0.000091
    32  C    0.283393   5.910286   0.044124  -0.024693   0.000047  -0.001477
    33  C   -0.068236   0.044124   5.226742  -0.062876  -0.000256  -0.022615
    34  C    0.002955  -0.024693  -0.062876   5.864518  -0.157939   0.418569
    35  C   -0.000047   0.000047  -0.000256  -0.157939   5.310376   0.295735
    36  C    0.000091  -0.001477  -0.022615   0.418569   0.295735   5.133148
    37  C   -0.022291   0.079676  -0.037050   0.000269  -0.000013   0.000004
    38  H    0.314023  -0.020209   0.003291   0.000058  -0.000012   0.000002
    39  H   -0.000104   0.002689   0.007190   0.321326  -0.000222  -0.040494
    40  H   -0.000323   0.005055   0.001433  -0.000004   0.000000   0.000000
    41  F    0.000000  -0.000003   0.000000  -0.060833  -0.049444   0.294087
    42  H    0.000851  -0.000019  -0.000061   0.000637  -0.034087  -0.000256
              37         38         39         40         41         42
     1  C    0.000163   0.001006   0.000003   0.000000  -0.000001   0.014064
     2  C    0.000014   0.000064  -0.000001   0.000000   0.000000   0.001246
     3  C    0.000061   0.002462   0.000000   0.000000   0.000000   0.000320
     4  H    0.000002   0.000063   0.000000   0.000000   0.000000   0.000012
     5  H    0.000071  -0.000766   0.000000   0.000000   0.000000  -0.000002
     6  H    0.000000   0.000088   0.000000   0.000000   0.000000  -0.000586
     7  H    0.000000  -0.000012   0.000000   0.000000   0.000000  -0.000178
     8  H    0.000001   0.000404   0.000000   0.000000   0.000000  -0.001735
     9  N    0.000000   0.000000  -0.000041   0.000000   0.003937  -0.008207
    10  C    0.000000   0.000000   0.000001   0.000000   0.000087   0.008491
    11  C    0.000000   0.000000   0.000000   0.000000  -0.000046   0.000254
    12  N    0.000000   0.000000   0.000000   0.000000   0.000000   0.000008
    13  C    0.000000   0.000000   0.000001   0.000000  -0.004933   0.000195
    14  C    0.000000   0.000000  -0.000001   0.000000  -0.000005  -0.000044
    15  H    0.000000   0.000000   0.000000   0.000000   0.000000   0.000000
    16  H    0.000000   0.000000   0.000000   0.000000   0.000000   0.000171
    17  H    0.000000   0.000000   0.000000   0.000000  -0.000002   0.000192
    18  H    0.000000   0.000000   0.000000   0.000000   0.000269   0.000080
    19  H    0.000000   0.000000   0.000008   0.000000   0.004608  -0.000015
    20  H    0.000000   0.000000   0.000000   0.000000  -0.000001   0.000000
    21  H    0.000000   0.000000   0.000000   0.000000   0.000069   0.000002
    22  H    0.000000   0.000000   0.000000   0.000000   0.000000   0.000012
    23  H    0.000000   0.000000   0.000000   0.000000   0.000001   0.000032
    24  O   -0.007451  -0.000054   0.010246   0.000302   0.000003   0.000001
    25  O    0.255628   0.000325   0.000000   0.249304   0.000000   0.000000
    26  O    0.590558   0.012273   0.000000   0.003064   0.000000   0.000000
    27  N    0.008222  -0.035969  -0.000061   0.000001   0.000000  -0.003651
    28  C   -0.000389  -0.000037   0.000536   0.000000   0.001069   0.307039
    29  C   -0.000181  -0.003816   0.000218   0.000007  -0.001066  -0.012309
    30  C   -0.026085  -0.000047  -0.016730   0.000042  -0.000951  -0.001842
    31  C   -0.022291   0.314023  -0.000104  -0.000323   0.000000   0.000851
    32  C    0.079676  -0.020209   0.002689   0.005055  -0.000003  -0.000019
    33  C   -0.037050   0.003291   0.007190   0.001433   0.000000  -0.000061
    34  C    0.000269   0.000058   0.321326  -0.000004  -0.060833   0.000637
    35  C   -0.000013  -0.000012  -0.000222   0.000000  -0.049444  -0.034087
    36  C    0.000004   0.000002  -0.040494   0.000000   0.294087  -0.000256
    37  C    4.991919  -0.005535  -0.000013  -0.029039   0.000000   0.000000
    38  H   -0.005535   0.443385   0.000000   0.000000   0.000000   0.000005
    39  H   -0.000013   0.000000   0.417772   0.000000   0.000361   0.000006
    40  H   -0.029039   0.000000   0.000000   0.363755   0.000000   0.000000
    41  F    0.000000   0.000000   0.000361   0.000000   9.075777  -0.000032
    42  H    0.000000   0.000005   0.000006   0.000000  -0.000032   0.466676
 Mulliken charges:
               1
     1  C   -0.156703
     2  C   -0.476653
     3  C   -0.513774
     4  H    0.254544
     5  H    0.249807
     6  H    0.249172
     7  H    0.254504
     8  H    0.276102
     9  N   -0.235767
    10  C   -0.321918
    11  C   -0.389260
    12  N   -0.382871
    13  C   -0.334233
    14  C   -0.374907
    15  H    0.300866
    16  H    0.204493
    17  H    0.212091
    18  H    0.217431
    19  H    0.244829
    20  H    0.209767
    21  H    0.199189
    22  H    0.210189
    23  H    0.188402
    24  O   -0.289425
    25  O   -0.452015
    26  O   -0.356293
    27  N   -0.223358
    28  C   -0.428324
    29  C    0.336905
    30  C    0.178406
    31  C   -0.271345
    32  C    0.084654
    33  C    0.150620
    34  C   -0.577029
    35  C    0.333076
    36  C    0.234869
    37  C    0.201459
    38  H    0.289007
    39  H    0.297311
    40  H    0.406402
    41  F   -0.262951
    42  H    0.262730
 Sum of Mulliken charges =   0.00000
 Mulliken charges with hydrogens summed into heavy atoms:
               1
     1  C    0.119399
     2  C    0.027023
     3  C   -0.009423
     9  N   -0.235767
    10  C    0.094666
    11  C    0.009331
    12  N   -0.082004
    13  C    0.128027
    14  C    0.034048
    24  O   -0.289425
    25  O   -0.045612
    26  O   -0.356293
    27  N   -0.223358
    28  C   -0.165595
    29  C    0.336905
    30  C    0.178406
    31  C    0.017662
    32  C    0.084654
    33  C    0.150620
    34  C   -0.279718
    35  C    0.333076
    36  C    0.234869
    37  C    0.201459
    41  F   -0.262951
 Electronic spatial extent (au):  <R**2>=           9856.7678
 Charge=              0.0000 electrons
 Dipole moment (field-independent basis, Debye):
    X=              6.2090    Y=              7.1077    Z=             -0.6455  Tot=              9.4598
 Quadrupole moment (field-independent basis, Debye-Ang):
   XX=           -135.0189   YY=           -139.1281   ZZ=           -138.9001
   XY=             -3.5142   XZ=              3.3821   YZ=              3.5845
 Traceless Quadrupole moment (field-independent basis, Debye-Ang):
   XX=              2.6635   YY=             -1.4457   ZZ=             -1.2177
   XY=             -3.5142   XZ=              3.3821   YZ=              3.5845
 Octapole moment (field-independent basis, Debye-Ang**2):
  XXX=            175.7463  YYY=             71.4909  ZZZ=              2.8574  XYY=             26.4569
  XXY=            -34.7146  XXZ=             23.9804  XZZ=             -5.6189  YZZ=             -4.1068
  YYZ=            -14.6253  XYZ=              9.5909
 Hexadecapole moment (field-independent basis, Debye-Ang**3):
 XXXX=          -8451.3703 YYYY=          -2687.4022 ZZZZ=           -282.2629 XXXY=            435.4110
 XXXZ=            137.9487 YYYX=           -124.0139 YYYZ=            -28.5912 ZZZX=              7.4884
 ZZZY=            -10.6749 XXYY=          -2077.5287 XXZZ=          -1674.6276 YYZZ=           -502.1265
 XXYZ=            111.2691 YYXZ=             19.7971 ZZXY=            -11.5180
 N-N= 2.052054306211D+03 E-N=-6.784058235681D+03  KE= 1.141873920320D+03
 1\1\GINC-NODE043\FOpt\RM06\LANL2DZ\C17H18F1N3O3\SUPERCOMPUTO1\21-Jul-2
 020\0\\#opt M06/lanl2dz integral=ultrafine geom=connectivity\\Title Ca
 rd Required\\0,1\C,-1.2906651382,2.5978425109,-0.4721642197\C,-0.67789
 42735,3.3615079213,0.6903442746\C,-2.0853592387,3.6846247734,0.2234927
 523\H,-2.2588597222,4.6038345781,-0.3229400897\H,-2.9026418847,3.38377
 0515,0.8710414383\H,-0.5774676156,2.8227568679,1.627712261\H,0.1222581
 479,4.061339031,0.4751281677\H,-0.9102604064,2.8081576088,-1.468817126
 3\N,3.0338733246,-0.1131707499,0.0346764495\C,3.4464094833,1.283373052
 6,0.2187424828\C,4.8329512331,1.3320739388,0.8643540281\N,5.7728416358
 ,0.5630541252,0.052449091\C,4.0130702919,-0.9168338709,-0.7285924601\C
 ,5.383458769,-0.8439898768,-0.0627125429\H,6.74994991,0.7140523385,0.2
 837403236\H,2.7292390259,1.7868624872,0.8776225273\H,3.4802703479,1.81
 726968,-0.7484896219\H,4.095872498,-0.5056615567,-1.7492640561\H,3.675
 7855113,-1.9515191472,-0.7888736717\H,6.1148194834,-1.3756892279,-0.67
 97036338\H,5.3198820242,-1.3484888176,0.9211365121\H,5.1653889718,2.37
 40260262,0.9239411601\H,4.7423350725,0.934795323,1.895236529\O,-2.8383
 402491,-2.7393545154,0.2399100625\O,-5.4087334747,-1.8200463098,-0.249
 9087574\O,-5.6991348336,0.4306543442,-0.3674671852\N,-1.6736707602,1.2
 11626556,-0.2737181023\C,0.6809637289,0.5445972974,-0.1538675173\C,-0.
 6847301002,0.2140654924,-0.1201354747\C,-1.101755857,-1.1242317578,0.0
 412408426\C,-2.986727364,0.8548781531,-0.3228369839\C,-3.4616803651,-0
 .4308827527,-0.1780103992\C,-2.5265224077,-1.5403655874,0.0499885331\C
 ,-0.1114884394,-2.1092454915,0.2094205404\C,1.680339581,-0.4335046573,
 0.0109313131\C,1.218543623,-1.7643741297,0.2072892301\C,-4.9272832025,
 -0.544728784,-0.2673618264\H,-3.7029066679,1.6554886811,-0.4883675107\
 H,-0.4248232929,-3.1371284408,0.3695381673\H,-6.3892029919,-1.80303577
 16,-0.3128248744\F,2.1537931861,-2.7662418582,0.4580312252\H,0.9754034
 356,1.5704310012,-0.338766858\\Version=ES64L-G09RevD.01\State=1-A\HF=-
 1147.5123902\RMSD=3.474e-09\RMSF=6.112e-06\Dipole=2.3954455,2.845703,-
 0.123888\Quadrupole=1.9060524,-1.2616983,-0.6443541,-2.686047,2.515903
 2,2.6143445\PG=C01 [X(C17H18F1N3O3)]\\@


 THE ... SCIENTISTS WERE WRONG ... THE MOST PERSISTENT PRINCIPLES 
 OF THE UNIVERSE WERE ACCIDENT AND ERROR.

                          -- FRANK HERBERT IN DUNE
 Job cpu time:       0 days  5 hours 15 minutes  8.6 seconds.
 File lengths (MBytes):  RWF=     43 Int=      0 D2E=      0 Chk=      7 Scr=      1
 Normal termination of Gaussian 09 at Tue Jul 21 07:20:08 2020.
