 Entering Gaussian System, Link 0=g09
 Input=norfloxacina.gjf
 Output=norfloxacina.log
 Initial command:
 /usr/local/cluster_programs/g09/l1.exe "/tmp/scratch/63930.prometeo/Gau-21570.inp" -scrdir="/tmp/scratch/63930.prometeo/"
 Entering Link 1 = /usr/local/cluster_programs/g09/l1.exe PID=     21571.
  
 Copyright (c) 1988,1990,1992,1993,1995,1998,2003,2009,2013,
            Gaussian, Inc.  All Rights Reserved.
  
 This is part of the Gaussian(R) 09 program.  It is based on
 the Gaussian(R) 03 system (copyright 2003, Gaussian, Inc.),
 the Gaussian(R) 98 system (copyright 1998, Gaussian, Inc.),
 the Gaussian(R) 94 system (copyright 1995, Gaussian, Inc.),
 the Gaussian 92(TM) system (copyright 1992, Gaussian, Inc.),
 the Gaussian 90(TM) system (copyright 1990, Gaussian, Inc.),
 the Gaussian 88(TM) system (copyright 1988, Gaussian, Inc.),
 the Gaussian 86(TM) system (copyright 1986, Carnegie Mellon
 University), and the Gaussian 82(TM) system (copyright 1983,
 Carnegie Mellon University). Gaussian is a federally registered
 trademark of Gaussian, Inc.
  
 This software contains proprietary and confidential information,
 including trade secrets, belonging to Gaussian, Inc.
  
 This software is provided under written license and may be
 used, copied, transmitted, or stored only in accord with that
 written license.
  
 The following legend is applicable only to US Government
 contracts under FAR:
  
                    RESTRICTED RIGHTS LEGEND
  
 Use, reproduction and disclosure by the US Government is
 subject to restrictions as set forth in subparagraphs (a)
 and (c) of the Commercial Computer Software - Restricted
 Rights clause in FAR 52.227-19.
  
 Gaussian, Inc.
 340 Quinnipiac St., Bldg. 40, Wallingford CT 06492
  
  
 ---------------------------------------------------------------
 Warning -- This program may not be used in any manner that
 competes with the business of Gaussian, Inc. or will provide
 assistance to any competitor of Gaussian, Inc.  The licensee
 of this program is prohibited from giving any competitor of
 Gaussian, Inc. access to this program.  By using this program,
 the user acknowledges that Gaussian, Inc. is engaged in the
 business of creating and licensing software in the field of
 computational chemistry and represents and warrants to the
 licensee that it is not a competitor of Gaussian, Inc. and that
 it will not use this program in any manner prohibited above.
 ---------------------------------------------------------------
  

 Cite this work as:
 Gaussian 09, Revision D.01,
 M. J. Frisch, G. W. Trucks, H. B. Schlegel, G. E. Scuseria, 
 M. A. Robb, J. R. Cheeseman, G. Scalmani, V. Barone, B. Mennucci, 
 G. A. Petersson, H. Nakatsuji, M. Caricato, X. Li, H. P. Hratchian, 
 A. F. Izmaylov, J. Bloino, G. Zheng, J. L. Sonnenberg, M. Hada, 
 M. Ehara, K. Toyota, R. Fukuda, J. Hasegawa, M. Ishida, T. Nakajima, 
 Y. Honda, O. Kitao, H. Nakai, T. Vreven, J. A. Montgomery, Jr., 
 J. E. Peralta, F. Ogliaro, M. Bearpark, J. J. Heyd, E. Brothers, 
 K. N. Kudin, V. N. Staroverov, T. Keith, R. Kobayashi, J. Normand, 
 K. Raghavachari, A. Rendell, J. C. Burant, S. S. Iyengar, J. Tomasi, 
 M. Cossi, N. Rega, J. M. Millam, M. Klene, J. E. Knox, J. B. Cross, 
 V. Bakken, C. Adamo, J. Jaramillo, R. Gomperts, R. E. Stratmann, 
 O. Yazyev, A. J. Austin, R. Cammi, C. Pomelli, J. W. Ochterski, 
 R. L. Martin, K. Morokuma, V. G. Zakrzewski, G. A. Voth, 
 P. Salvador, J. J. Dannenberg, S. Dapprich, A. D. Daniels, 
 O. Farkas, J. B. Foresman, J. V. Ortiz, J. Cioslowski, 
 and D. J. Fox, Gaussian, Inc., Wallingford CT, 2013.
 
 ******************************************
 Gaussian 09:  ES64L-G09RevD.01 24-Apr-2013
                 6-Jul-2020 
 ******************************************
 %nprocshared=20
 Will use up to   20 processors via shared memory.
 -----------------------------------
 # opt b3lyp/3-21g geom=connectivity
 -----------------------------------
 1/14=-1,18=20,19=15,26=3,38=1,57=2/1,3;
 2/9=110,12=2,17=6,18=5,40=1/2;
 3/5=5,11=2,16=1,25=1,30=1,71=1,74=-5/1,2,3;
 4//1;
 5/5=2,38=5/2;
 6/7=2,8=2,9=2,10=2,28=1/1;
 7//1,2,3,16;
 1/14=-1,18=20,19=15,26=3/3(2);
 2/9=110/2;
 99//99;
 2/9=110/2;
 3/5=5,11=2,16=1,25=1,30=1,71=1,74=-5/1,2,3;
 4/5=5,16=3,69=1/1;
 5/5=2,38=5/2;
 7//1,2,3,16;
 1/14=-1,18=20,19=15,26=3/3(-5);
 2/9=110/2;
 6/7=2,8=2,9=2,10=2,19=2,28=1/1;
 99/9=1/99;
 -------------------
 Title Card Required
 -------------------
 Symbolic Z-matrix:
 Charge =  0 Multiplicity = 1
 F                     6.18482   5.69997   5.19563 
 H                     8.58025   7.72351   8.54126 
 N                     7.93838   5.32436   7.49673 
 C                     9.01168   5.12402   8.4687 
 C                     8.57019   4.15392   9.56666 
 N                     8.22061   2.87758   8.94916 
 C                     7.52608   4.03335   6.91968 
 C                     7.12209   3.03717   8.00273 
 H                     8.00711   2.16002   9.64998 
 H                     9.34104   6.06657   8.91409 
 H                     9.88052   4.67702   7.95096 
 H                     8.38542   3.60971   6.36842 
 H                     6.70163   4.16921   6.22428 
 H                     6.91334   2.07385   7.51933 
 H                     6.18019   3.37908   8.48137 
 H                     9.40386   3.99323   10.2638 
 H                     7.73164   4.62171   10.1252 
 O                     4.86703   10.4504   5.07634 
 O                     4.66061   13.1435   5.7641 
 O                     6.2442    13.9076   7.19083 
 N                     7.78441   10.2137   7.99292 
 C                     7.87571   7.77132   7.71826 
 C                     7.36101   9.02695   7.3588 
 C                     6.38745   9.14416   6.34679 
 C                     8.84742   10.2328   9.01042 
 C                     7.20049   11.3964   7.67167 
 C                     6.20189   11.5684   6.7403 
 C                     5.73183   10.4133   5.97152 
 C                     6.03545   7.97181   5.66813 
 C                     7.4849    6.56663   7.08167 
 C                     8.35087   9.91507   10.4183 
 C                     6.57551   6.76007   5.99553 
 C                     5.72807   12.9587   6.59299 
 H                     9.63084   9.53725   8.68167 
 H                     9.30225   11.2326   8.98308 
 H                     7.56704   12.2658   8.21735 
 H                     5.32081   8.0311    4.84737 
 H                     9.17469   10.0102   11.1379 
 H                     7.56158   10.6232   10.7106 
 H                     7.94996   8.89726   10.4922 
 H                     4.488     14.1141   5.79116 
 

 GradGradGradGradGradGradGradGradGradGradGradGradGradGradGradGradGradGrad
 Berny optimization.
 Initialization pass.
                           ----------------------------
                           !    Initial Parameters    !
                           ! (Angstroms and Degrees)  !
 --------------------------                            --------------------------
 ! Name  Definition              Value          Derivative Info.                !
 --------------------------------------------------------------------------------
 ! R1    R(1,32)                 1.3843         estimate D2E/DX2                !
 ! R2    R(2,22)                 1.0844         estimate D2E/DX2                !
 ! R3    R(3,4)                  1.4618         estimate D2E/DX2                !
 ! R4    R(3,7)                  1.473          estimate D2E/DX2                !
 ! R5    R(3,30)                 1.3861         estimate D2E/DX2                !
 ! R6    R(4,5)                  1.5302         estimate D2E/DX2                !
 ! R7    R(4,10)                 1.0933         estimate D2E/DX2                !
 ! R8    R(4,11)                 1.1058         estimate D2E/DX2                !
 ! R9    R(5,6)                  1.4603         estimate D2E/DX2                !
 ! R10   R(5,16)                 1.0986         estimate D2E/DX2                !
 ! R11   R(5,17)                 1.1108         estimate D2E/DX2                !
 ! R12   R(6,8)                  1.4587         estimate D2E/DX2                !
 ! R13   R(6,9)                  1.0255         estimate D2E/DX2                !
 ! R14   R(7,8)                  1.526          estimate D2E/DX2                !
 ! R15   R(7,12)                 1.1054         estimate D2E/DX2                !
 ! R16   R(7,13)                 1.0871         estimate D2E/DX2                !
 ! R17   R(8,14)                 1.0978         estimate D2E/DX2                !
 ! R18   R(8,15)                 1.1105         estimate D2E/DX2                !
 ! R19   R(18,28)                1.2452         estimate D2E/DX2                !
 ! R20   R(19,33)                1.3641         estimate D2E/DX2                !
 ! R21   R(19,41)                0.9862         estimate D2E/DX2                !
 ! R22   R(20,33)                1.2346         estimate D2E/DX2                !
 ! R23   R(21,23)                1.4106         estimate D2E/DX2                !
 ! R24   R(21,25)                1.4716         estimate D2E/DX2                !
 ! R25   R(21,26)                1.3576         estimate D2E/DX2                !
 ! R26   R(22,23)                1.4038         estimate D2E/DX2                !
 ! R27   R(22,30)                1.4175         estimate D2E/DX2                !
 ! R28   R(23,24)                1.4092         estimate D2E/DX2                !
 ! R29   R(24,28)                1.477          estimate D2E/DX2                !
 ! R30   R(24,29)                1.3996         estimate D2E/DX2                !
 ! R31   R(25,31)                1.5263         estimate D2E/DX2                !
 ! R32   R(25,34)                1.098          estimate D2E/DX2                !
 ! R33   R(25,35)                1.0987         estimate D2E/DX2                !
 ! R34   R(26,27)                1.3763         estimate D2E/DX2                !
 ! R35   R(26,36)                1.0899         estimate D2E/DX2                !
 ! R36   R(27,28)                1.465          estimate D2E/DX2                !
 ! R37   R(27,33)                1.4762         estimate D2E/DX2                !
 ! R38   R(29,32)                1.3664         estimate D2E/DX2                !
 ! R39   R(29,37)                1.0899         estimate D2E/DX2                !
 ! R40   R(30,32)                1.4297         estimate D2E/DX2                !
 ! R41   R(31,38)                1.098          estimate D2E/DX2                !
 ! R42   R(31,39)                1.0999         estimate D2E/DX2                !
 ! R43   R(31,40)                1.0964         estimate D2E/DX2                !
 ! A1    A(4,3,7)              110.2358         estimate D2E/DX2                !
 ! A2    A(4,3,30)             124.2058         estimate D2E/DX2                !
 ! A3    A(7,3,30)             125.2149         estimate D2E/DX2                !
 ! A4    A(3,4,5)              110.6183         estimate D2E/DX2                !
 ! A5    A(3,4,10)             111.9576         estimate D2E/DX2                !
 ! A6    A(3,4,11)             108.7227         estimate D2E/DX2                !
 ! A7    A(5,4,10)             109.9482         estimate D2E/DX2                !
 ! A8    A(5,4,11)             107.8409         estimate D2E/DX2                !
 ! A9    A(10,4,11)            107.6106         estimate D2E/DX2                !
 ! A10   A(4,5,6)              108.6481         estimate D2E/DX2                !
 ! A11   A(4,5,16)             109.2155         estimate D2E/DX2                !
 ! A12   A(4,5,17)             108.1558         estimate D2E/DX2                !
 ! A13   A(6,5,16)             108.7935         estimate D2E/DX2                !
 ! A14   A(6,5,17)             113.576          estimate D2E/DX2                !
 ! A15   A(16,5,17)            108.3837         estimate D2E/DX2                !
 ! A16   A(5,6,8)              111.0385         estimate D2E/DX2                !
 ! A17   A(5,6,9)              111.8655         estimate D2E/DX2                !
 ! A18   A(8,6,9)              111.2943         estimate D2E/DX2                !
 ! A19   A(3,7,8)              111.6062         estimate D2E/DX2                !
 ! A20   A(3,7,12)             108.2809         estimate D2E/DX2                !
 ! A21   A(3,7,13)             110.6923         estimate D2E/DX2                !
 ! A22   A(8,7,12)             108.034          estimate D2E/DX2                !
 ! A23   A(8,7,13)             109.5618         estimate D2E/DX2                !
 ! A24   A(12,7,13)            108.571          estimate D2E/DX2                !
 ! A25   A(6,8,7)              109.4226         estimate D2E/DX2                !
 ! A26   A(6,8,14)             109.4433         estimate D2E/DX2                !
 ! A27   A(6,8,15)             113.1273         estimate D2E/DX2                !
 ! A28   A(7,8,14)             108.0987         estimate D2E/DX2                !
 ! A29   A(7,8,15)             109.2365         estimate D2E/DX2                !
 ! A30   A(14,8,15)            107.378          estimate D2E/DX2                !
 ! A31   A(33,19,41)           104.6923         estimate D2E/DX2                !
 ! A32   A(23,21,25)           122.5855         estimate D2E/DX2                !
 ! A33   A(23,21,26)           119.8328         estimate D2E/DX2                !
 ! A34   A(25,21,26)           117.5814         estimate D2E/DX2                !
 ! A35   A(2,22,23)            118.1617         estimate D2E/DX2                !
 ! A36   A(2,22,30)            118.8479         estimate D2E/DX2                !
 ! A37   A(23,22,30)           122.9618         estimate D2E/DX2                !
 ! A38   A(21,23,22)           121.8261         estimate D2E/DX2                !
 ! A39   A(21,23,24)           117.4028         estimate D2E/DX2                !
 ! A40   A(22,23,24)           120.77           estimate D2E/DX2                !
 ! A41   A(23,24,28)           124.0995         estimate D2E/DX2                !
 ! A42   A(23,24,29)           116.8926         estimate D2E/DX2                !
 ! A43   A(28,24,29)           119.0078         estimate D2E/DX2                !
 ! A44   A(21,25,31)           113.5823         estimate D2E/DX2                !
 ! A45   A(21,25,34)           107.4666         estimate D2E/DX2                !
 ! A46   A(21,25,35)           107.0751         estimate D2E/DX2                !
 ! A47   A(31,25,34)           112.1124         estimate D2E/DX2                !
 ! A48   A(31,25,35)           110.3068         estimate D2E/DX2                !
 ! A49   A(34,25,35)           105.8798         estimate D2E/DX2                !
 ! A50   A(21,26,27)           125.5277         estimate D2E/DX2                !
 ! A51   A(21,26,36)           115.5813         estimate D2E/DX2                !
 ! A52   A(27,26,36)           118.8893         estimate D2E/DX2                !
 ! A53   A(26,27,28)           119.3            estimate D2E/DX2                !
 ! A54   A(26,27,33)           114.7158         estimate D2E/DX2                !
 ! A55   A(28,27,33)           125.9608         estimate D2E/DX2                !
 ! A56   A(18,28,24)           121.1007         estimate D2E/DX2                !
 ! A57   A(18,28,27)           125.2109         estimate D2E/DX2                !
 ! A58   A(24,28,27)           113.6882         estimate D2E/DX2                !
 ! A59   A(24,29,32)           121.8175         estimate D2E/DX2                !
 ! A60   A(24,29,37)           118.9795         estimate D2E/DX2                !
 ! A61   A(32,29,37)           119.1978         estimate D2E/DX2                !
 ! A62   A(3,30,22)            122.4815         estimate D2E/DX2                !
 ! A63   A(3,30,32)            123.8386         estimate D2E/DX2                !
 ! A64   A(22,30,32)           113.6753         estimate D2E/DX2                !
 ! A65   A(25,31,38)           110.0233         estimate D2E/DX2                !
 ! A66   A(25,31,39)           110.1544         estimate D2E/DX2                !
 ! A67   A(25,31,40)           111.9855         estimate D2E/DX2                !
 ! A68   A(38,31,39)           107.9664         estimate D2E/DX2                !
 ! A69   A(38,31,40)           108.0959         estimate D2E/DX2                !
 ! A70   A(39,31,40)           108.502          estimate D2E/DX2                !
 ! A71   A(1,32,29)            115.4108         estimate D2E/DX2                !
 ! A72   A(1,32,30)            120.9892         estimate D2E/DX2                !
 ! A73   A(29,32,30)           123.6            estimate D2E/DX2                !
 ! A74   A(19,33,20)           121.15           estimate D2E/DX2                !
 ! A75   A(19,33,27)           116.0665         estimate D2E/DX2                !
 ! A76   A(20,33,27)           122.7767         estimate D2E/DX2                !
 ! D1    D(7,3,4,5)            -57.0917         estimate D2E/DX2                !
 ! D2    D(7,3,4,10)           179.9029         estimate D2E/DX2                !
 ! D3    D(7,3,4,11)            61.1471         estimate D2E/DX2                !
 ! D4    D(30,3,4,5)           129.3422         estimate D2E/DX2                !
 ! D5    D(30,3,4,10)            6.3369         estimate D2E/DX2                !
 ! D6    D(30,3,4,11)         -112.4189         estimate D2E/DX2                !
 ! D7    D(4,3,7,8)             55.4788         estimate D2E/DX2                !
 ! D8    D(4,3,7,12)           -63.3053         estimate D2E/DX2                !
 ! D9    D(4,3,7,13)           177.7926         estimate D2E/DX2                !
 ! D10   D(30,3,7,8)          -131.0344         estimate D2E/DX2                !
 ! D11   D(30,3,7,12)          110.1814         estimate D2E/DX2                !
 ! D12   D(30,3,7,13)           -8.7207         estimate D2E/DX2                !
 ! D13   D(4,3,30,22)          -10.2706         estimate D2E/DX2                !
 ! D14   D(4,3,30,32)          170.566          estimate D2E/DX2                !
 ! D15   D(7,3,30,22)          177.1235         estimate D2E/DX2                !
 ! D16   D(7,3,30,32)           -2.0399         estimate D2E/DX2                !
 ! D17   D(3,4,5,6)             59.5262         estimate D2E/DX2                !
 ! D18   D(3,4,5,16)           178.0609         estimate D2E/DX2                !
 ! D19   D(3,4,5,17)           -64.1783         estimate D2E/DX2                !
 ! D20   D(10,4,5,6)          -176.3096         estimate D2E/DX2                !
 ! D21   D(10,4,5,16)          -57.7749         estimate D2E/DX2                !
 ! D22   D(10,4,5,17)           59.9859         estimate D2E/DX2                !
 ! D23   D(11,4,5,6)           -59.249          estimate D2E/DX2                !
 ! D24   D(11,4,5,16)           59.2857         estimate D2E/DX2                !
 ! D25   D(11,4,5,17)          177.0465         estimate D2E/DX2                !
 ! D26   D(4,5,6,8)            -60.7278         estimate D2E/DX2                !
 ! D27   D(4,5,6,9)            174.2698         estimate D2E/DX2                !
 ! D28   D(16,5,6,8)          -179.5283         estimate D2E/DX2                !
 ! D29   D(16,5,6,9)            55.4693         estimate D2E/DX2                !
 ! D30   D(17,5,6,8)            59.6757         estimate D2E/DX2                !
 ! D31   D(17,5,6,9)           -65.3267         estimate D2E/DX2                !
 ! D32   D(5,6,8,7)             59.0108         estimate D2E/DX2                !
 ! D33   D(5,6,8,14)           177.2915         estimate D2E/DX2                !
 ! D34   D(5,6,8,15)           -63.0266         estimate D2E/DX2                !
 ! D35   D(9,6,8,7)           -175.6661         estimate D2E/DX2                !
 ! D36   D(9,6,8,14)           -57.3854         estimate D2E/DX2                !
 ! D37   D(9,6,8,15)            62.2965         estimate D2E/DX2                !
 ! D38   D(3,7,8,6)            -55.9053         estimate D2E/DX2                !
 ! D39   D(3,7,8,14)          -175.0207         estimate D2E/DX2                !
 ! D40   D(3,7,8,15)            68.4376         estimate D2E/DX2                !
 ! D41   D(12,7,8,6)            63.0259         estimate D2E/DX2                !
 ! D42   D(12,7,8,14)          -56.0895         estimate D2E/DX2                !
 ! D43   D(12,7,8,15)         -172.6312         estimate D2E/DX2                !
 ! D44   D(13,7,8,6)          -178.8659         estimate D2E/DX2                !
 ! D45   D(13,7,8,14)           62.0186         estimate D2E/DX2                !
 ! D46   D(13,7,8,15)          -54.523          estimate D2E/DX2                !
 ! D47   D(41,19,33,20)          0.8063         estimate D2E/DX2                !
 ! D48   D(41,19,33,27)        179.886          estimate D2E/DX2                !
 ! D49   D(25,21,23,22)          3.8681         estimate D2E/DX2                !
 ! D50   D(25,21,23,24)       -176.5099         estimate D2E/DX2                !
 ! D51   D(26,21,23,22)       -175.9193         estimate D2E/DX2                !
 ! D52   D(26,21,23,24)          3.7027         estimate D2E/DX2                !
 ! D53   D(23,21,25,31)        -84.5321         estimate D2E/DX2                !
 ! D54   D(23,21,25,34)         40.0742         estimate D2E/DX2                !
 ! D55   D(23,21,25,35)        153.4478         estimate D2E/DX2                !
 ! D56   D(26,21,25,31)         95.2598         estimate D2E/DX2                !
 ! D57   D(26,21,25,34)       -140.1339         estimate D2E/DX2                !
 ! D58   D(26,21,25,35)        -26.7603         estimate D2E/DX2                !
 ! D59   D(23,21,26,27)         -0.6915         estimate D2E/DX2                !
 ! D60   D(23,21,26,36)        178.8394         estimate D2E/DX2                !
 ! D61   D(25,21,26,27)        179.5106         estimate D2E/DX2                !
 ! D62   D(25,21,26,36)         -0.9585         estimate D2E/DX2                !
 ! D63   D(2,22,23,21)           3.1022         estimate D2E/DX2                !
 ! D64   D(2,22,23,24)        -176.5073         estimate D2E/DX2                !
 ! D65   D(30,22,23,21)       -178.8675         estimate D2E/DX2                !
 ! D66   D(30,22,23,24)          1.5231         estimate D2E/DX2                !
 ! D67   D(2,22,30,3)            1.9742         estimate D2E/DX2                !
 ! D68   D(2,22,30,32)        -178.7845         estimate D2E/DX2                !
 ! D69   D(23,22,30,3)        -176.0433         estimate D2E/DX2                !
 ! D70   D(23,22,30,32)          3.198          estimate D2E/DX2                !
 ! D71   D(21,23,24,28)         -3.8318         estimate D2E/DX2                !
 ! D72   D(21,23,24,29)        176.1619         estimate D2E/DX2                !
 ! D73   D(22,23,24,28)        175.7944         estimate D2E/DX2                !
 ! D74   D(22,23,24,29)         -4.2119         estimate D2E/DX2                !
 ! D75   D(23,24,28,18)       -179.2406         estimate D2E/DX2                !
 ! D76   D(23,24,28,27)          0.9079         estimate D2E/DX2                !
 ! D77   D(29,24,28,18)          0.7659         estimate D2E/DX2                !
 ! D78   D(29,24,28,27)       -179.0856         estimate D2E/DX2                !
 ! D79   D(23,24,29,32)          2.0328         estimate D2E/DX2                !
 ! D80   D(23,24,29,37)       -177.1298         estimate D2E/DX2                !
 ! D81   D(28,24,29,32)       -177.9732         estimate D2E/DX2                !
 ! D82   D(28,24,29,37)          2.8642         estimate D2E/DX2                !
 ! D83   D(21,25,31,38)       -176.2696         estimate D2E/DX2                !
 ! D84   D(21,25,31,39)        -57.3571         estimate D2E/DX2                !
 ! D85   D(21,25,31,40)         63.4886         estimate D2E/DX2                !
 ! D86   D(34,25,31,38)         61.6665         estimate D2E/DX2                !
 ! D87   D(34,25,31,39)       -179.421          estimate D2E/DX2                !
 ! D88   D(34,25,31,40)        -58.5753         estimate D2E/DX2                !
 ! D89   D(35,25,31,38)        -56.0612         estimate D2E/DX2                !
 ! D90   D(35,25,31,39)         62.8513         estimate D2E/DX2                !
 ! D91   D(35,25,31,40)       -176.3031         estimate D2E/DX2                !
 ! D92   D(21,26,27,28)         -2.3985         estimate D2E/DX2                !
 ! D93   D(21,26,27,33)        179.2564         estimate D2E/DX2                !
 ! D94   D(36,26,27,28)        178.0848         estimate D2E/DX2                !
 ! D95   D(36,26,27,33)         -0.2603         estimate D2E/DX2                !
 ! D96   D(26,27,28,18)       -177.6785         estimate D2E/DX2                !
 ! D97   D(26,27,28,24)          2.1658         estimate D2E/DX2                !
 ! D98   D(33,27,28,18)          0.4641         estimate D2E/DX2                !
 ! D99   D(33,27,28,24)       -179.6915         estimate D2E/DX2                !
 ! D100  D(26,27,33,19)       -174.4788         estimate D2E/DX2                !
 ! D101  D(26,27,33,20)          4.5845         estimate D2E/DX2                !
 ! D102  D(28,27,33,19)          7.3042         estimate D2E/DX2                !
 ! D103  D(28,27,33,20)       -173.6325         estimate D2E/DX2                !
 ! D104  D(24,29,32,1)        -176.8965         estimate D2E/DX2                !
 ! D105  D(24,29,32,30)          3.041          estimate D2E/DX2                !
 ! D106  D(37,29,32,1)           2.2644         estimate D2E/DX2                !
 ! D107  D(37,29,32,30)       -177.7982         estimate D2E/DX2                !
 ! D108  D(3,30,32,1)           -6.3398         estimate D2E/DX2                !
 ! D109  D(3,30,32,29)         173.7262         estimate D2E/DX2                !
 ! D110  D(22,30,32,1)         174.4307         estimate D2E/DX2                !
 ! D111  D(22,30,32,29)         -5.5033         estimate D2E/DX2                !
 --------------------------------------------------------------------------------
 Trust Radius=3.00D-01 FncErr=1.00D-07 GrdErr=1.00D-06
 Number of steps in this run=    240 maximum allowed number of steps=    246.
 GradGradGradGradGradGradGradGradGradGradGradGradGradGradGradGradGradGrad

                          Input orientation:                          
 ---------------------------------------------------------------------
 Center     Atomic      Atomic             Coordinates (Angstroms)
 Number     Number       Type             X           Y           Z
 ---------------------------------------------------------------------
      1          9           0        6.184820    5.699970    5.195630
      2          1           0        8.580250    7.723510    8.541260
      3          7           0        7.938380    5.324360    7.496730
      4          6           0        9.011680    5.124020    8.468700
      5          6           0        8.570190    4.153920    9.566660
      6          7           0        8.220610    2.877580    8.949160
      7          6           0        7.526080    4.033350    6.919680
      8          6           0        7.122090    3.037170    8.002730
      9          1           0        8.007110    2.160020    9.649980
     10          1           0        9.341040    6.066570    8.914090
     11          1           0        9.880520    4.677020    7.950960
     12          1           0        8.385420    3.609710    6.368420
     13          1           0        6.701630    4.169210    6.224280
     14          1           0        6.913340    2.073850    7.519330
     15          1           0        6.180190    3.379080    8.481370
     16          1           0        9.403860    3.993230   10.263800
     17          1           0        7.731640    4.621710   10.125200
     18          8           0        4.867030   10.450400    5.076340
     19          8           0        4.660610   13.143500    5.764100
     20          8           0        6.244200   13.907600    7.190830
     21          7           0        7.784410   10.213700    7.992920
     22          6           0        7.875710    7.771320    7.718260
     23          6           0        7.361010    9.026950    7.358800
     24          6           0        6.387450    9.144160    6.346790
     25          6           0        8.847420   10.232800    9.010420
     26          6           0        7.200490   11.396400    7.671670
     27          6           0        6.201890   11.568400    6.740300
     28          6           0        5.731830   10.413300    5.971520
     29          6           0        6.035450    7.971810    5.668130
     30          6           0        7.484900    6.566630    7.081670
     31          6           0        8.350870    9.915070   10.418300
     32          6           0        6.575510    6.760070    5.995530
     33          6           0        5.728070   12.958700    6.592990
     34          1           0        9.630840    9.537250    8.681670
     35          1           0        9.302250   11.232600    8.983080
     36          1           0        7.567040   12.265800    8.217350
     37          1           0        5.320810    8.031100    4.847370
     38          1           0        9.174690   10.010200   11.137900
     39          1           0        7.561580   10.623200   10.710600
     40          1           0        7.949960    8.897260   10.492200
     41          1           0        4.488000   14.114100    5.791160
 ---------------------------------------------------------------------
                    Distance matrix (angstroms):
                    1          2          3          4          5
     1  F    0.000000
     2  H    4.585416   0.000000
     3  N    2.917382   2.694246   0.000000
     4  C    4.363008   2.636047   1.461792   0.000000
     5  C    5.214035   3.713963   2.460432   1.530204   0.000000
     6  N    5.118527   4.876347   2.859360   2.429635   1.460327
     7  C    2.747535   4.166303   1.472985   2.407495   2.848018
     8  C    3.981054   4.937411   2.480646   2.853528   2.406242
     9  H    5.974380   5.701769   3.828088   3.345128   2.073557
    10  H    4.891121   1.860982   2.127731   1.093275   2.162935
    11  H    4.721914   3.364559   2.096970   1.105779   2.145014
    12  H    3.253808   4.656452   2.100703   2.663928   3.249468
    13  H    1.915317   4.640114   2.117322   3.359377   3.829263
    14  H    4.367959   5.978427   3.408377   3.822024   3.356099
    15  H    4.022765   4.963663   2.800868   3.326005   2.736847
    16  H    6.241917   4.190521   3.402384   2.157516   1.098559
    17  H    5.277874   3.584713   2.728610   2.152861   1.110838
    18  O    4.931266   5.764512   6.447307   7.553579   8.574499
    19  O    7.619220   7.242409   8.653597   9.516235  10.514601
    20  O    8.446866   6.747130   8.754189   9.297482  10.304808
    21  N    5.545924   2.671158   4.916865   5.257129   6.309916
    22  C    3.676039   1.084431   2.457767   2.976875   4.121222
    23  C    4.139024   2.140961   3.749874   4.380577   5.484814
    24  C    3.637124   3.412084   4.280025   5.248868   6.327275
    25  C    6.495276   2.566715   5.216358   5.140046   6.110568
    26  C    6.293781   4.018712   6.119212   6.577113   7.610557
    27  C    6.068341   4.866542   6.525000   7.239635   8.280801
    28  C    4.798196   4.685299   5.752603   6.705953   7.756362
    29  C    2.325258   3.846107   3.738170   4.981069   6.016621
    30  C    2.449174   2.160686   1.386057   2.517148   3.629628
    31  C    7.052313   2.894621   5.457136   5.214573   5.827885
    32  C    1.384302   3.380524   2.484407   3.837728   4.850127
    33  C    7.406105   6.271993   7.999085   8.699574   9.718257
    34  H    6.225130   2.100740   4.692222   4.461537   5.557736
    35  H    7.394129   3.609737   6.243130   6.137081   7.140321
    36  H    7.358767   4.665181   6.988618   7.290760   8.284295
    37  H    2.510372   4.935928   4.604044   5.931919   6.918287
    38  H    7.926410   3.510676   6.061656   5.570095   6.093458
    39  H    7.519877   3.761905   6.208755   6.113091   6.646614
    40  H    6.433664   2.362440   4.662466   4.411252   4.872431
    41  H    8.604152   8.071505   9.595500  10.414146  11.407185
                    6          7          8          9         10
     6  N    0.000000
     7  C    2.436589   0.000000
     8  C    1.458748   1.525968   0.000000
     9  H    1.025487   3.345937   2.065450   0.000000
    10  H    3.380274   3.377238   3.864140   4.193094   0.000000
    11  H    2.643802   2.649762   3.209474   3.568140   1.774685
    12  H    2.687638   1.105361   2.143542   3.607403   3.664670
    13  H    3.376474   1.087086   2.149694   4.180496   4.219187
    14  H    2.097463   2.138848   1.097833   2.396545   4.876566
    15  H    2.152590   2.162953   1.110484   2.487849   4.171429
    16  H    2.091180   3.835467   3.351561   2.385025   2.474753
    17  H    2.159665   3.265544   2.717940   2.522228   2.478826
    18  O    9.142912   7.186583   8.282816   9.975404   7.345955
    19  O   11.322867   9.619829  10.639937  12.121714   9.050514
    20  O   11.342807   9.960801  10.936001  12.130989   8.604754
    21  N    7.411027   6.278161   7.207035   8.225400   4.524416
    22  C    5.057940   3.838280   4.802191   5.935949   2.546247
    23  C    6.409595   5.015587   6.029029   7.267852   3.886296
    24  C    7.028715   5.267358   6.370020   7.893831   4.978582
    25  C    7.382134   6.674602   7.467884   8.141556   4.196476
    26  C    8.674268   7.408509   8.366150   9.480246   5.876449
    27  C    9.191553   7.652623   8.673084  10.012126   6.696996
    28  C    8.476287   6.694931   7.775984   9.317972   6.370179
    29  C    6.441371   4.393156   5.566131   7.315701   5.009303
    30  C    4.199747   2.538788   3.665661   5.127098   2.655763
    31  C    7.190383   6.893131   7.392590   7.800595   4.249004
    32  C    5.148205   3.031936   4.264691   6.046895   4.080085
    33  C   10.648628   9.110513  10.117678  11.452105   8.120500
    34  H    6.812599   6.150410   7.000416   7.615619   3.490505
    35  H    8.424812   7.696857   8.536935   9.188789   5.166636
    36  H    9.439352   8.334198   9.241843  10.216305   6.485598
    37  H    7.196686   5.013949   6.175779   8.046791   6.046473
    38  H    7.521643   7.498935   7.916161   8.074805   4.530477
    39  H    7.970673   7.602530   8.066819   8.541009   5.211219
    40  H    6.220191   6.049809   6.420552   6.789919   3.526803
    41  H   12.254172  10.588910  11.598614  13.045101   9.902900
                   11         12         13         14         15
    11  H    0.000000
    12  H    2.424646   0.000000
    13  H    3.653031   1.780159   0.000000
    14  H    3.970763   2.418776   2.472349   0.000000
    15  H    3.957073   3.062807   2.447583   1.779510   0.000000
    16  H    2.458455   4.044539   4.863202   4.173587   3.734473
    17  H    3.057460   3.945246   4.059908   3.735206   2.579400
    18  O    8.168870   7.800229   6.643559   8.962264   7.957524
    19  O   10.183865  10.253417   9.214956  11.432094  10.248735
    20  O    9.950087  10.550247   9.796923  11.857205  10.607513
    21  N    5.920326   6.827364   6.390333   8.200013   7.037339
    22  C    3.694334   4.404642   4.072547   5.781600   4.769580
    23  C    5.061667   5.601496   5.031854   6.969346   5.878174
    24  C    5.893237   5.884088   4.986366   7.186146   6.151060
    25  C    5.749473   7.145553   7.009573   8.516600   7.373431
    26  C    7.239519   7.983424   7.387562   9.328215   8.122441
    27  C    7.905007   8.261165   7.433978   9.552985   8.372381
    28  C    7.350831   7.313543   6.324007   8.563767   7.482020
    29  C    5.554414   5.004066   3.900367   6.243682   5.387805
    30  C    3.172584   3.172229   2.663879   4.550088   3.717782
    31  C    5.988720   7.494017   7.302377   8.482644   7.154210
    32  C    4.368741   3.652340   2.603995   4.939307   4.215065
    33  C    9.363394   9.721911   8.850927  10.988309   9.774431
    34  H    4.921190   6.483666   6.590515   8.027340   7.061881
    35  H    6.661479   8.110825   8.016588   9.577691   8.466212
    36  H    7.938056   8.889105   8.383080  10.236718   8.998158
    37  H    6.455469   5.590538   4.326285   6.720443   5.965382
    38  H    6.252807   8.021045   8.023519   9.010738   7.745704
    39  H    6.953427   8.289890   7.906995   9.148541   7.704218
    40  H    5.291067   6.719626   6.490603   7.514750   6.133990
    41  H   11.081628  11.218971  10.197479  12.403083  11.195597
                   16         17         18         19         20
    16  H    0.000000
    17  H    1.791792   0.000000
    18  O    9.443919   8.226214   0.000000
    19  O   11.246029  10.053423   2.787187   0.000000
    20  O   10.849946   9.851434   4.280175   2.264324   0.000000
    21  N    6.817167   5.984961   4.132018   4.827991   4.081727
    22  C    4.805099   3.966631   4.817610   6.558653   6.371337
    23  C    6.160406   5.215024   3.668211   5.175057   5.009613
    24  C    7.139592   6.044484   2.373180   4.395023   4.839761
    25  C    6.388491   5.828553   5.600700   6.044845   4.857141
    26  C    8.147448   7.224843   3.616032   3.625213   2.729803
    27  C    8.947115   7.877448   2.408431   2.410280   2.382567
    28  C    8.551302   7.402352   1.245232   2.940158   3.736224
    29  C    6.949494   5.828010   2.803360   5.352175   6.131541
    30  C    4.520038   3.620313   5.094925   7.277900   7.445878
    31  C    6.016714   5.337510   6.400020   6.760352   5.549317
    32  C    5.820060   4.792014   4.169215   6.668477   7.254357
    33  C   10.361753   9.273414   3.055026   1.364068   1.234591
    34  H    5.769819   5.463815   6.043685   6.798562   5.726421
    35  H    7.352486   6.890219   5.962016   5.963069   4.440659
    36  H    8.717642   7.880298   4.522353   3.903348   2.345028
    37  H    7.893884   6.729898   2.472116   5.235732   6.393568
    38  H    6.084447   5.669548   7.449310   7.685845   6.273505
    39  H    6.895660   6.032371   6.247827   6.263817   4.991148
    40  H    5.120108   4.296822   6.422479   7.155788   6.237962
    41  H   12.107939  10.927514   3.751977   0.986200   2.255207
                   21         22         23         24         25
    21  N    0.000000
    22  C    2.459470   0.000000
    23  C    1.410585   1.403828   0.000000
    24  C    2.409389   2.445514   1.409156   0.000000
    25  C    1.471619   2.944959   2.528109   3.785699   0.000000
    26  C    1.357551   3.687723   2.395401   2.736590   2.420453
    27  C    2.430769   4.263320   2.860956   2.462970   3.733109
    28  C    2.887730   3.824576   2.549655   1.476950   4.355961
    29  C    3.672816   2.762207   2.393490   1.399603   4.918349
    30  C    3.771101   1.417483   2.478976   2.896223   4.360887
    31  C    2.508491   3.480181   3.336034   4.585468   1.526316
    32  C    4.168761   2.383473   2.759395   2.417154   5.129424
    33  C    3.704506   5.726037   4.325693   3.878932   4.796336
    34  H    2.083570   2.669672   2.676288   4.015690   1.098004
    35  H    2.079041   3.951613   3.357319   4.450580   1.098735
    36  H    2.075749   4.532628   3.357038   3.825580   2.530103
    37  H    4.552752   3.851884   3.385471   2.150554   5.883489
    38  H    3.444588   4.288808   4.305556   5.610122   2.163984
    39  H    2.757377   4.145600   3.717903   4.754890   2.167120
    40  H    2.829633   2.994661   3.190905   4.436983   2.187413
    41  H    5.561222   7.444538   6.049031   5.349480   6.665783
                   26         27         28         29         30
    26  C    0.000000
    27  C    1.376312   0.000000
    28  C    2.452337   1.465003   0.000000
    29  C    4.135131   3.756689   2.478932   0.000000
    30  C    4.873979   5.174974   4.370647   2.464454   0.000000
    31  C    3.325912   4.569387   5.184733   5.630412   4.805731
    32  C    4.969467   4.879991   3.749462   1.366444   1.429724
    33  C    2.402572   1.476191   2.620172   5.081232   6.647091
    34  H    3.222288   4.433079   4.828525   4.945589   3.998705
    35  H    2.482745   3.841231   4.742219   5.682748   5.356248
    36  H    1.089946   2.128774   3.441439   5.223279   5.811803
    37  H    4.778610   4.107551   2.665995   1.089896   3.438031
    38  H    4.223004   5.532126   6.221516   6.627839   5.582702
    39  H    3.156473   4.301795   5.084380   5.897919   5.443416
    40  H    3.842238   4.926205   5.258805   5.271950   4.156902
    41  H    4.275490   3.212300   3.908397   6.335414   8.222599
                   31         32         33         34         35
    31  C    0.000000
    32  C    5.715490   0.000000
    33  C    5.547590   6.284754   0.000000
    34  H    2.190195   4.925761   5.594687   0.000000
    35  H    2.168148   6.030265   4.633219   1.753006   0.000000
    36  H    3.314288   6.019359   2.549601   3.452513   2.159814
    37  H    6.615578   2.123219   5.243500   5.962106   6.573094
    38  H    1.097977   6.615365   6.420985   2.542601   2.480682
    39  H    1.099939   6.174787   5.076518   3.094783   2.526980
    40  H    1.096416   5.164953   6.052762   2.552051   3.091916
    41  H    7.346022   7.647302   1.875008   7.466686   6.455106
                   36         37         38         39         40
    36  H    0.000000
    37  H    5.859607   0.000000
    38  H    4.025156   7.638062   0.000000
    39  H    2.985709   6.790987   1.777773   0.000000
    40  H    4.082724   6.287032   1.776380   1.782528   0.000000
    41  H    4.333947   6.211860   8.209427   6.770094   7.829455
                   41
    41  H    0.000000
 Stoichiometry    C16H18FN3O3
 Framework group  C1[X(C16H18FN3O3)]
 Deg. of freedom   117
 Full point group                 C1      NOp   1
 Largest Abelian subgroup         C1      NOp   1
 Largest concise Abelian subgroup C1      NOp   1
                         Standard orientation:                         
 ---------------------------------------------------------------------
 Center     Atomic      Atomic             Coordinates (Angstroms)
 Number     Number       Type             X           Y           Z
 ---------------------------------------------------------------------
      1          9           0        1.932006   -2.842371   -0.321895
      2          1           0        1.043078    1.654169   -0.452174
      3          7           0        3.044760   -0.145587   -0.337684
      4          6           0        3.629040    1.166912   -0.607496
      5          6           0        4.635981    1.542706    0.481711
      6          7           0        5.689380    0.531791    0.512658
      7          6           0        4.104627   -1.162953   -0.231227
      8          6           0        5.142686   -0.784919    0.821438
      9          1           0        6.441962    0.784169    1.161928
     10          1           0        2.865338    1.944452   -0.693750
     11          1           0        4.171738    1.122787   -1.569930
     12          1           0        4.617481   -1.232879   -1.207912
     13          1           0        3.681185   -2.135213    0.007863
     14          1           0        5.947309   -1.531146    0.790355
     15          1           0        4.678691   -0.839238    1.828876
     16          1           0        5.085642    2.515061    0.238482
     17          1           0        4.086423    1.641263    1.442041
     18          8           0       -2.951175   -2.444494    0.238125
     19          8           0       -5.480685   -1.321304    0.567418
     20          8           0       -5.639365    0.881942    0.069730
     21          7           0       -1.616211    1.419777   -0.360919
     22          6           0        0.711102    0.624566   -0.376666
     23          6           0       -0.668073    0.377878   -0.288595
     24          6           0       -1.156403   -0.932507   -0.114965
     25          6           0       -1.238232    2.819085   -0.615339
     26          6           0       -2.934662    1.146280   -0.188207
     27          6           0       -3.468662   -0.099998    0.048164
     28          6           0       -2.582470   -1.266250    0.075640
     29          6           0       -0.213178   -1.966459   -0.127506
     30          6           0        1.683380   -0.405864   -0.330338
     31          6           0       -0.822713    3.577681    0.642244
     32          6           0        1.124400   -1.719839   -0.258784
     33          6           0       -4.935069   -0.121375    0.216484
     34          1           0       -0.445830    2.813447   -1.375393
     35          1           0       -2.103088    3.306355   -1.086307
     36          1           0       -3.603983    2.005033   -0.238561
     37          1           0       -0.558101   -2.996926   -0.043603
     38          1           0       -0.617872    4.628173    0.397173
     39          1           0       -1.634237    3.554434    1.384373
     40          1           0        0.078785    3.152507    1.099032
     41          1           0       -6.448808   -1.145776    0.634638
 ---------------------------------------------------------------------
 Rotational constants (GHZ):      0.5351963      0.1326553      0.1093360
 Standard basis: 3-21G (6D, 7F)
 There are   243 symmetry adapted cartesian basis functions of A   symmetry.
 There are   243 symmetry adapted basis functions of A   symmetry.
   243 basis functions,   399 primitive gaussians,   243 cartesian basis functions
    84 alpha electrons       84 beta electrons
       nuclear repulsion energy      1934.0750827128 Hartrees.
 NAtoms=   41 NActive=   41 NUniq=   41 SFac= 1.00D+00 NAtFMM=   60 NAOKFM=F Big=F
 Integral buffers will be    131072 words long.
 Raffenetti 2 integral format.
 Two-electron integral symmetry is turned on.
 One-electron integrals computed using PRISM.
 PrsmSu:  requested number of processors reduced to:   9 ShMem   1 Linda.
 NBasis=   243 RedAO= T EigKep=  1.26D-03  NBF=   243
 NBsUse=   243 1.00D-06 EigRej= -1.00D+00 NBFU=   243
 ExpMin= 1.83D-01 ExpMax= 4.14D+02 ExpMxC= 4.14D+02 IAcc=1 IRadAn=         1 AccDes= 0.00D+00
 Harris functional with IExCor=  402 and IRadAn=       1 diagonalized for initial guess.
 HarFok:  IExCor=  402 AccDes= 0.00D+00 IRadAn=         1 IDoV= 1 UseB2=F ITyADJ=14
 ICtDFT=  3500011 ScaDFX=  1.000000  1.000000  1.000000  1.000000
 FoFCou: FMM=F IPFlag=           0 FMFlag=      100000 FMFlg1=           0
         NFxFlg=           0 DoJE=T BraDBF=F KetDBF=T FulRan=T
         wScrn=  0.000000 ICntrl=     500 IOpCl=  0 I1Cent=   200000004 NGrid=           0
         NMat0=    1 NMatS0=      1 NMatT0=    0 NMatD0=    1 NMtDS0=    0 NMtDT0=    0
 Petite list used in FoFCou.
 Requested convergence on RMS density matrix=1.00D-08 within 128 cycles.
 Requested convergence on MAX density matrix=1.00D-06.
 Requested convergence on             energy=1.00D-06.
 No special actions if energy rises.
 Integral accuracy reduced to 1.0D-05 until final iterations.
 EnCoef did     1 forward-backward iterations
 Initial convergence to 1.0D-05 achieved.  Increase integral accuracy.
 SCF Done:  E(RB3LYP) =  -1104.22458747     A.U. after   17 cycles
            NFock= 17  Conv=0.48D-08     -V/T= 2.0083

 **********************************************************************

            Population analysis using the SCF density.

 **********************************************************************

 Orbital symmetries:
       Occupied  (A) (A) (A) (A) (A) (A) (A) (A) (A) (A) (A) (A)
                 (A) (A) (A) (A) (A) (A) (A) (A) (A) (A) (A) (A)
                 (A) (A) (A) (A) (A) (A) (A) (A) (A) (A) (A) (A)
                 (A) (A) (A) (A) (A) (A) (A) (A) (A) (A) (A) (A)
                 (A) (A) (A) (A) (A) (A) (A) (A) (A) (A) (A) (A)
                 (A) (A) (A) (A) (A) (A) (A) (A) (A) (A) (A) (A)
                 (A) (A) (A) (A) (A) (A) (A) (A) (A) (A) (A) (A)
       Virtual   (A) (A) (A) (A) (A) (A) (A) (A) (A) (A) (A) (A)
                 (A) (A) (A) (A) (A) (A) (A) (A) (A) (A) (A) (A)
                 (A) (A) (A) (A) (A) (A) (A) (A) (A) (A) (A) (A)
                 (A) (A) (A) (A) (A) (A) (A) (A) (A) (A) (A) (A)
                 (A) (A) (A) (A) (A) (A) (A) (A) (A) (A) (A) (A)
                 (A) (A) (A) (A) (A) (A) (A) (A) (A) (A) (A) (A)
                 (A) (A) (A) (A) (A) (A) (A) (A) (A) (A) (A) (A)
                 (A) (A) (A) (A) (A) (A) (A) (A) (A) (A) (A) (A)
                 (A) (A) (A) (A) (A) (A) (A) (A) (A) (A) (A) (A)
                 (A) (A) (A) (A) (A) (A) (A) (A) (A) (A) (A) (A)
                 (A) (A) (A) (A) (A) (A) (A) (A) (A) (A) (A) (A)
                 (A) (A) (A) (A) (A) (A) (A) (A) (A) (A) (A) (A)
                 (A) (A) (A) (A) (A) (A) (A) (A) (A) (A) (A) (A)
                 (A) (A) (A)
 The electronic state is 1-A.
 Alpha  occ. eigenvalues --  -24.57285 -19.06442 -19.00804 -18.98683 -14.33530
 Alpha  occ. eigenvalues --  -14.29600 -14.24522 -10.24609 -10.21296 -10.20433
 Alpha  occ. eigenvalues --  -10.19481 -10.19335 -10.19233 -10.18971 -10.17363
 Alpha  occ. eigenvalues --  -10.16253 -10.15909 -10.15622 -10.14406 -10.14112
 Alpha  occ. eigenvalues --  -10.13527 -10.13413 -10.13393  -1.20701  -1.09246
 Alpha  occ. eigenvalues --   -1.01215  -1.00369  -0.99820  -0.97553  -0.91828
 Alpha  occ. eigenvalues --   -0.86876  -0.82458  -0.78810  -0.78395  -0.77665
 Alpha  occ. eigenvalues --   -0.75766  -0.71202  -0.67718  -0.67231  -0.65881
 Alpha  occ. eigenvalues --   -0.64581  -0.61126  -0.60410  -0.59040  -0.56377
 Alpha  occ. eigenvalues --   -0.54517  -0.53952  -0.52677  -0.50511  -0.49233
 Alpha  occ. eigenvalues --   -0.48257  -0.47954  -0.47684  -0.47020  -0.46842
 Alpha  occ. eigenvalues --   -0.45714  -0.45296  -0.45044  -0.44186  -0.43770
 Alpha  occ. eigenvalues --   -0.43021  -0.42883  -0.41598  -0.41161  -0.40644
 Alpha  occ. eigenvalues --   -0.40001  -0.39510  -0.38597  -0.37995  -0.36875
 Alpha  occ. eigenvalues --   -0.36350  -0.35972  -0.35818  -0.35465  -0.35048
 Alpha  occ. eigenvalues --   -0.33690  -0.30038  -0.28399  -0.26068  -0.25437
 Alpha  occ. eigenvalues --   -0.22349  -0.21583  -0.21414  -0.19749
 Alpha virt. eigenvalues --   -0.03808  -0.02450   0.01615   0.04884   0.07334
 Alpha virt. eigenvalues --    0.08503   0.09735   0.11345   0.11715   0.12189
 Alpha virt. eigenvalues --    0.12780   0.13364   0.14117   0.14774   0.15071
 Alpha virt. eigenvalues --    0.16001   0.16257   0.16725   0.17096   0.17659
 Alpha virt. eigenvalues --    0.18135   0.18816   0.19005   0.20128   0.20462
 Alpha virt. eigenvalues --    0.21487   0.21854   0.23159   0.23235   0.24196
 Alpha virt. eigenvalues --    0.24920   0.25735   0.26537   0.27158   0.28523
 Alpha virt. eigenvalues --    0.29514   0.30940   0.31145   0.31895   0.36418
 Alpha virt. eigenvalues --    0.39093   0.40285   0.41569   0.44305   0.45429
 Alpha virt. eigenvalues --    0.49949   0.54836   0.57846   0.61504   0.63728
 Alpha virt. eigenvalues --    0.64523   0.66205   0.66838   0.67170   0.68975
 Alpha virt. eigenvalues --    0.69066   0.69766   0.70632   0.71689   0.72158
 Alpha virt. eigenvalues --    0.72542   0.73390   0.73845   0.74065   0.74463
 Alpha virt. eigenvalues --    0.75241   0.75848   0.76118   0.77480   0.78386
 Alpha virt. eigenvalues --    0.78733   0.79417   0.80600   0.81061   0.81821
 Alpha virt. eigenvalues --    0.83727   0.84259   0.86587   0.86998   0.87817
 Alpha virt. eigenvalues --    0.88745   0.89237   0.91114   0.95070   0.96105
 Alpha virt. eigenvalues --    0.97489   0.98525   0.99405   0.99538   1.00237
 Alpha virt. eigenvalues --    1.00380   1.02600   1.02698   1.03859   1.04105
 Alpha virt. eigenvalues --    1.05290   1.05598   1.08232   1.08996   1.09917
 Alpha virt. eigenvalues --    1.11080   1.11739   1.13905   1.15627   1.17228
 Alpha virt. eigenvalues --    1.19592   1.23393   1.24674   1.28000   1.29842
 Alpha virt. eigenvalues --    1.31379   1.31820   1.33120   1.35295   1.36971
 Alpha virt. eigenvalues --    1.37992   1.41483   1.42115   1.44839   1.46395
 Alpha virt. eigenvalues --    1.48347   1.52134   1.52224   1.54827   1.58035
 Alpha virt. eigenvalues --    1.58989   1.60473   1.61980   1.63046   1.63305
 Alpha virt. eigenvalues --    1.66288   1.67257   1.69104   1.72270   1.75224
 Alpha virt. eigenvalues --    1.80882   1.82409   1.87510   1.89415   1.90200
 Alpha virt. eigenvalues --    1.91739   1.92320   1.95828   1.99392   2.01563
 Alpha virt. eigenvalues --    2.06323   2.10549   2.12011   2.18610   2.29179
 Alpha virt. eigenvalues --    2.44000   2.55335   2.66281   2.87697   3.01722
 Alpha virt. eigenvalues --    3.16359   3.43990   3.59316   3.98427
          Condensed to atoms (all electrons):
               1          2          3          4          5          6
     1  F    9.087660   0.000000  -0.002061  -0.000029   0.000000   0.000000
     2  H    0.000000   0.508885  -0.007846   0.001757  -0.000221   0.000001
     3  N   -0.002061  -0.007846   7.301158   0.275238  -0.058820  -0.002925
     4  C   -0.000029   0.001757   0.275238   5.260430   0.251232  -0.065275
     5  C    0.000000  -0.000221  -0.058820   0.251232   5.270965   0.297175
     6  N    0.000000   0.000001  -0.002925  -0.065275   0.297175   6.941779
     7  C   -0.014259   0.000004   0.263959  -0.080058  -0.009436  -0.061856
     8  C    0.000173  -0.000005  -0.055863  -0.009885  -0.092919   0.284642
     9  H    0.000000   0.000000  -0.000165   0.005136  -0.043087   0.328113
    10  H    0.000000   0.010321  -0.028464   0.353268  -0.035698   0.002259
    11  H    0.000000  -0.000008  -0.047481   0.346358  -0.058227   0.004250
    12  H   -0.000048   0.000001  -0.048394  -0.003649  -0.000676   0.003341
    13  H    0.040904  -0.000001  -0.024906   0.002630  -0.000003   0.001715
    14  H    0.000000   0.000000   0.002554  -0.000071   0.004641  -0.031835
    15  H    0.000008   0.000000   0.000220  -0.000165  -0.005588  -0.049995
    16  H    0.000000   0.000003   0.002661  -0.031668   0.362525  -0.032489
    17  H    0.000000   0.000013   0.000035  -0.060552   0.325543  -0.048961
    18  O    0.000000   0.000000   0.000000   0.000000   0.000000   0.000000
    19  O    0.000000   0.000000   0.000000   0.000000   0.000000   0.000000
    20  O    0.000000   0.000000   0.000000   0.000000   0.000000   0.000000
    21  N    0.000000  -0.008194  -0.000003   0.000000   0.000000   0.000000
    22  C    0.002031   0.383254  -0.053430  -0.004685   0.000210   0.000003
    23  C   -0.000193  -0.049083   0.004751   0.000498  -0.000006   0.000000
    24  C    0.003161   0.004798  -0.000354   0.000001   0.000000   0.000000
    25  C    0.000000   0.001435   0.000001  -0.000007   0.000000   0.000000
    26  C    0.000000  -0.000013   0.000000   0.000000   0.000000   0.000000
    27  C    0.000000   0.000005   0.000000   0.000000   0.000000   0.000000
    28  C   -0.000005  -0.000003   0.000000   0.000000   0.000000   0.000000
    29  C   -0.053359  -0.000459   0.004148  -0.000101   0.000001   0.000000
    30  C   -0.058727  -0.049386   0.271173  -0.055455   0.001906  -0.000056
    31  C    0.000000  -0.000037   0.000000   0.000000  -0.000001   0.000000
    32  C    0.283889   0.004312  -0.062851   0.000353  -0.000062  -0.000003
    33  C    0.000000   0.000000   0.000000   0.000000   0.000000   0.000000
    34  H    0.000000   0.002043   0.000000  -0.000006   0.000000   0.000000
    35  H    0.000000   0.000106   0.000000   0.000000   0.000000   0.000000
    36  H    0.000000   0.000003   0.000000   0.000000   0.000000   0.000000
    37  H   -0.001873   0.000001  -0.000008   0.000000   0.000000   0.000000
    38  H    0.000000   0.000050   0.000000   0.000000   0.000000   0.000000
    39  H    0.000000  -0.000034   0.000000   0.000000   0.000000   0.000000
    40  H    0.000000   0.003053  -0.000005  -0.000006   0.000005   0.000000
    41  H    0.000000   0.000000   0.000000   0.000000   0.000000   0.000000
               7          8          9         10         11         12
     1  F   -0.014259   0.000173   0.000000   0.000000   0.000000  -0.000048
     2  H    0.000004  -0.000005   0.000000   0.010321  -0.000008   0.000001
     3  N    0.263959  -0.055863  -0.000165  -0.028464  -0.047481  -0.048394
     4  C   -0.080058  -0.009885   0.005136   0.353268   0.346358  -0.003649
     5  C   -0.009436  -0.092919  -0.043087  -0.035698  -0.058227  -0.000676
     6  N   -0.061856   0.284642   0.328113   0.002259   0.004250   0.003341
     7  C    5.344943   0.232324   0.005038   0.003372  -0.003284   0.348595
     8  C    0.232324   5.296753  -0.043169   0.000016  -0.000817  -0.061486
     9  H    0.005038  -0.043169   0.483302  -0.000101  -0.000172  -0.000177
    10  H    0.003372   0.000016  -0.000101   0.518513  -0.023546   0.000038
    11  H   -0.003284  -0.000817  -0.000172  -0.023546   0.547133   0.009708
    12  H    0.348595  -0.061486  -0.000177   0.000038   0.009708   0.557486
    13  H    0.320707  -0.029398  -0.000087  -0.000063   0.000091  -0.018741
    14  H   -0.032149   0.363561  -0.003571   0.000003   0.000024  -0.000983
    15  H   -0.057276   0.329661  -0.001896   0.000061   0.000280   0.005248
    16  H   -0.000027   0.004601  -0.003871  -0.001817  -0.000276   0.000037
    17  H   -0.000088  -0.005286  -0.001637   0.001573   0.005417   0.000275
    18  O    0.000000   0.000000   0.000000   0.000000   0.000000   0.000000
    19  O    0.000000   0.000000   0.000000   0.000000   0.000000   0.000000
    20  O    0.000000   0.000000   0.000000   0.000000   0.000000   0.000000
    21  N    0.000000   0.000000   0.000000   0.000006   0.000000   0.000000
    22  C    0.001498  -0.000035   0.000000  -0.000347   0.000375  -0.000013
    23  C   -0.000062   0.000001   0.000000  -0.000013  -0.000008   0.000001
    24  C    0.000007   0.000000   0.000000  -0.000002   0.000000   0.000000
    25  C    0.000000   0.000000   0.000000  -0.000030   0.000000   0.000000
    26  C    0.000000   0.000000   0.000000   0.000000   0.000000   0.000000
    27  C    0.000000   0.000000   0.000000   0.000000   0.000000   0.000000
    28  C    0.000000   0.000000   0.000000   0.000000   0.000000   0.000000
    29  C   -0.000096   0.000006   0.000000  -0.000001   0.000000  -0.000006
    30  C   -0.044550   0.001913   0.000004  -0.004044   0.001376   0.001121
    31  C    0.000000   0.000000   0.000000  -0.000008   0.000000   0.000000
    32  C   -0.001191   0.000375   0.000000   0.000139   0.000029   0.000326
    33  C    0.000000   0.000000   0.000000   0.000000   0.000000   0.000000
    34  H    0.000000   0.000000   0.000000   0.000045   0.000001   0.000000
    35  H    0.000000   0.000000   0.000000   0.000000   0.000000   0.000000
    36  H    0.000000   0.000000   0.000000   0.000000   0.000000   0.000000
    37  H   -0.000002   0.000000   0.000000   0.000000   0.000000   0.000000
    38  H    0.000000   0.000000   0.000000   0.000001   0.000000   0.000000
    39  H    0.000000   0.000000   0.000000   0.000000   0.000000   0.000000
    40  H    0.000000   0.000000   0.000000   0.000035   0.000000   0.000000
    41  H    0.000000   0.000000   0.000000   0.000000   0.000000   0.000000
              13         14         15         16         17         18
     1  F    0.040904   0.000000   0.000008   0.000000   0.000000   0.000000
     2  H   -0.000001   0.000000   0.000000   0.000003   0.000013   0.000000
     3  N   -0.024906   0.002554   0.000220   0.002661   0.000035   0.000000
     4  C    0.002630  -0.000071  -0.000165  -0.031668  -0.060552   0.000000
     5  C   -0.000003   0.004641  -0.005588   0.362525   0.325543   0.000000
     6  N    0.001715  -0.031835  -0.049995  -0.032489  -0.048961   0.000000
     7  C    0.320707  -0.032149  -0.057276  -0.000027  -0.000088   0.000000
     8  C   -0.029398   0.363561   0.329661   0.004601  -0.005286   0.000000
     9  H   -0.000087  -0.003571  -0.001896  -0.003871  -0.001637   0.000000
    10  H   -0.000063   0.000003   0.000061  -0.001817   0.001573   0.000000
    11  H    0.000091   0.000024   0.000280  -0.000276   0.005417   0.000000
    12  H   -0.018741  -0.000983   0.005248   0.000037   0.000275   0.000000
    13  H    0.474705  -0.001422   0.001042   0.000002   0.000072   0.000000
    14  H   -0.001422   0.532054  -0.036275  -0.000058  -0.000199   0.000000
    15  H    0.001042  -0.036275   0.631748  -0.000177   0.011797   0.000000
    16  H    0.000002  -0.000058  -0.000177   0.536730  -0.034549   0.000000
    17  H    0.000072  -0.000199   0.011797  -0.034549   0.635563   0.000000
    18  O    0.000000   0.000000   0.000000   0.000000   0.000000   8.078935
    19  O    0.000000   0.000000   0.000000   0.000000   0.000000  -0.000659
    20  O    0.000000   0.000000   0.000000   0.000000   0.000000   0.000000
    21  N    0.000000   0.000000   0.000000   0.000000   0.000000  -0.000025
    22  C    0.000074   0.000000  -0.000017  -0.000002  -0.000099   0.000003
    23  C    0.000007   0.000000   0.000000   0.000000  -0.000002   0.003353
    24  C   -0.000040   0.000000   0.000000   0.000000   0.000000  -0.128926
    25  C    0.000000   0.000000   0.000000   0.000000   0.000000   0.000000
    26  C    0.000000   0.000000   0.000000   0.000000   0.000000   0.003588
    27  C    0.000000   0.000000   0.000000   0.000000   0.000000  -0.116643
    28  C    0.000000   0.000000   0.000000   0.000000   0.000000   0.646168
    29  C    0.000726   0.000000  -0.000001   0.000000   0.000000   0.004831
    30  C   -0.007123  -0.000037   0.000199  -0.000040   0.000335  -0.000005
    31  C    0.000000   0.000000   0.000000   0.000000   0.000000   0.000000
    32  C   -0.002807  -0.000001  -0.000032   0.000000  -0.000009   0.000639
    33  C    0.000000   0.000000   0.000000   0.000000   0.000000  -0.003834
    34  H    0.000000   0.000000   0.000000   0.000000   0.000000   0.000000
    35  H    0.000000   0.000000   0.000000   0.000000   0.000000   0.000000
    36  H    0.000000   0.000000   0.000000   0.000000   0.000000  -0.000004
    37  H    0.000017   0.000000   0.000000   0.000000   0.000000   0.014215
    38  H    0.000000   0.000000   0.000000   0.000000   0.000000   0.000000
    39  H    0.000000   0.000000   0.000000   0.000000   0.000000   0.000000
    40  H    0.000000   0.000000   0.000000  -0.000001   0.000008   0.000000
    41  H    0.000000   0.000000   0.000000   0.000000   0.000000   0.000160
              19         20         21         22         23         24
     1  F    0.000000   0.000000   0.000000   0.002031  -0.000193   0.003161
     2  H    0.000000   0.000000  -0.008194   0.383254  -0.049083   0.004798
     3  N    0.000000   0.000000  -0.000003  -0.053430   0.004751  -0.000354
     4  C    0.000000   0.000000   0.000000  -0.004685   0.000498   0.000001
     5  C    0.000000   0.000000   0.000000   0.000210  -0.000006   0.000000
     6  N    0.000000   0.000000   0.000000   0.000003   0.000000   0.000000
     7  C    0.000000   0.000000   0.000000   0.001498  -0.000062   0.000007
     8  C    0.000000   0.000000   0.000000  -0.000035   0.000001   0.000000
     9  H    0.000000   0.000000   0.000000   0.000000   0.000000   0.000000
    10  H    0.000000   0.000000   0.000006  -0.000347  -0.000013  -0.000002
    11  H    0.000000   0.000000   0.000000   0.000375  -0.000008   0.000000
    12  H    0.000000   0.000000   0.000000  -0.000013   0.000001   0.000000
    13  H    0.000000   0.000000   0.000000   0.000074   0.000007  -0.000040
    14  H    0.000000   0.000000   0.000000   0.000000   0.000000   0.000000
    15  H    0.000000   0.000000   0.000000  -0.000017   0.000000   0.000000
    16  H    0.000000   0.000000   0.000000  -0.000002   0.000000   0.000000
    17  H    0.000000   0.000000   0.000000  -0.000099  -0.000002   0.000000
    18  O   -0.000659   0.000000  -0.000025   0.000003   0.003353  -0.128926
    19  O    8.230913  -0.065216  -0.000001   0.000000  -0.000002   0.000087
    20  O   -0.065216   8.153784   0.000101   0.000000   0.000002  -0.000017
    21  N   -0.000001   0.000101   7.435715  -0.046468   0.187093  -0.030093
    22  C    0.000000   0.000000  -0.046468   5.365915   0.370456  -0.045649
    23  C   -0.000002   0.000002   0.187093   0.370456   5.062234   0.295232
    24  C    0.000087  -0.000017  -0.030093  -0.045649   0.295232   6.097253
    25  C    0.000000   0.000004   0.251729  -0.002943  -0.050751   0.001126
    26  C    0.003008   0.003598   0.239207   0.001957  -0.064176  -0.012570
    27  C   -0.090182  -0.115662  -0.014503  -0.000755  -0.024401  -0.172966
    28  C    0.002164   0.002083  -0.036640   0.005826   0.004849  -0.045976
    29  C    0.000000   0.000000   0.005896  -0.047475  -0.069642   0.227174
    30  C    0.000000   0.000000   0.004286   0.298903  -0.002713  -0.036289
    31  C    0.000000   0.000000  -0.057362  -0.002481   0.000488  -0.000053
    32  C    0.000000   0.000000  -0.000371  -0.008760  -0.047756  -0.029295
    33  C    0.221893   0.514948   0.004471  -0.000003  -0.000552   0.005935
    34  H    0.000000   0.000000  -0.036192   0.002529  -0.001806   0.000260
    35  H    0.000000  -0.000006  -0.032598   0.000110   0.002764  -0.000063
    36  H    0.000233   0.020955  -0.035808  -0.000059   0.003044  -0.000504
    37  H    0.000000   0.000000  -0.000012  -0.000368   0.003513  -0.053541
    38  H    0.000000   0.000000   0.002641   0.000018  -0.000022   0.000000
    39  H    0.000000   0.000000  -0.001023   0.000015  -0.000020   0.000001
    40  H    0.000000   0.000000  -0.001426   0.001747   0.001300  -0.000021
    41  H    0.238596   0.005915   0.000000   0.000000   0.000000   0.000005
              25         26         27         28         29         30
     1  F    0.000000   0.000000   0.000000  -0.000005  -0.053359  -0.058727
     2  H    0.001435  -0.000013   0.000005  -0.000003  -0.000459  -0.049386
     3  N    0.000001   0.000000   0.000000   0.000000   0.004148   0.271173
     4  C   -0.000007   0.000000   0.000000   0.000000  -0.000101  -0.055455
     5  C    0.000000   0.000000   0.000000   0.000000   0.000001   0.001906
     6  N    0.000000   0.000000   0.000000   0.000000   0.000000  -0.000056
     7  C    0.000000   0.000000   0.000000   0.000000  -0.000096  -0.044550
     8  C    0.000000   0.000000   0.000000   0.000000   0.000006   0.001913
     9  H    0.000000   0.000000   0.000000   0.000000   0.000000   0.000004
    10  H   -0.000030   0.000000   0.000000   0.000000  -0.000001  -0.004044
    11  H    0.000000   0.000000   0.000000   0.000000   0.000000   0.001376
    12  H    0.000000   0.000000   0.000000   0.000000  -0.000006   0.001121
    13  H    0.000000   0.000000   0.000000   0.000000   0.000726  -0.007123
    14  H    0.000000   0.000000   0.000000   0.000000   0.000000  -0.000037
    15  H    0.000000   0.000000   0.000000   0.000000  -0.000001   0.000199
    16  H    0.000000   0.000000   0.000000   0.000000   0.000000  -0.000040
    17  H    0.000000   0.000000   0.000000   0.000000   0.000000   0.000335
    18  O    0.000000   0.003588  -0.116643   0.646168   0.004831  -0.000005
    19  O    0.000000   0.003008  -0.090182   0.002164   0.000000   0.000000
    20  O    0.000004   0.003598  -0.115662   0.002083   0.000000   0.000000
    21  N    0.251729   0.239207  -0.014503  -0.036640   0.005896   0.004286
    22  C   -0.002943   0.001957  -0.000755   0.005826  -0.047475   0.298903
    23  C   -0.050751  -0.064176  -0.024401   0.004849  -0.069642  -0.002713
    24  C    0.001126  -0.012570  -0.172966  -0.045976   0.227174  -0.036289
    25  C    5.192803  -0.066157   0.002168   0.000057  -0.000081   0.000121
    26  C   -0.066157   5.115277   0.313857  -0.023497  -0.001391  -0.000075
    27  C    0.002168   0.313857   6.439210  -0.062975   0.015577  -0.000007
    28  C    0.000057  -0.023497  -0.062975   5.208329  -0.074579  -0.000932
    29  C   -0.000081  -0.001391   0.015577  -0.074579   5.667066  -0.075826
    30  C    0.000121  -0.000075  -0.000007  -0.000932  -0.075826   5.231220
    31  C    0.262244  -0.000258  -0.000042  -0.000003   0.000002   0.000021
    32  C   -0.000001   0.000008   0.000036   0.009764   0.227960   0.159494
    33  C   -0.000048  -0.094418   0.074243  -0.036923   0.000007   0.000000
    34  H    0.367205   0.002878  -0.000112   0.000003  -0.000006  -0.000015
    35  H    0.374674  -0.001147   0.000545  -0.000011   0.000001  -0.000002
    36  H   -0.002417   0.364405  -0.053855   0.002788   0.000000   0.000000
    37  H    0.000000  -0.000057   0.001208   0.001023   0.369103   0.004843
    38  H   -0.034976  -0.000027   0.000000   0.000000   0.000000   0.000000
    39  H   -0.040146   0.002423  -0.000064   0.000000   0.000000   0.000000
    40  H   -0.040176  -0.000066   0.000013  -0.000001  -0.000001  -0.000006
    41  H    0.000000  -0.000280   0.012235  -0.000110   0.000000   0.000000
              31         32         33         34         35         36
     1  F    0.000000   0.283889   0.000000   0.000000   0.000000   0.000000
     2  H   -0.000037   0.004312   0.000000   0.002043   0.000106   0.000003
     3  N    0.000000  -0.062851   0.000000   0.000000   0.000000   0.000000
     4  C    0.000000   0.000353   0.000000  -0.000006   0.000000   0.000000
     5  C   -0.000001  -0.000062   0.000000   0.000000   0.000000   0.000000
     6  N    0.000000  -0.000003   0.000000   0.000000   0.000000   0.000000
     7  C    0.000000  -0.001191   0.000000   0.000000   0.000000   0.000000
     8  C    0.000000   0.000375   0.000000   0.000000   0.000000   0.000000
     9  H    0.000000   0.000000   0.000000   0.000000   0.000000   0.000000
    10  H   -0.000008   0.000139   0.000000   0.000045   0.000000   0.000000
    11  H    0.000000   0.000029   0.000000   0.000001   0.000000   0.000000
    12  H    0.000000   0.000326   0.000000   0.000000   0.000000   0.000000
    13  H    0.000000  -0.002807   0.000000   0.000000   0.000000   0.000000
    14  H    0.000000  -0.000001   0.000000   0.000000   0.000000   0.000000
    15  H    0.000000  -0.000032   0.000000   0.000000   0.000000   0.000000
    16  H    0.000000   0.000000   0.000000   0.000000   0.000000   0.000000
    17  H    0.000000  -0.000009   0.000000   0.000000   0.000000   0.000000
    18  O    0.000000   0.000639  -0.003834   0.000000   0.000000  -0.000004
    19  O    0.000000   0.000000   0.221893   0.000000   0.000000   0.000233
    20  O    0.000000   0.000000   0.514948   0.000000  -0.000006   0.020955
    21  N   -0.057362  -0.000371   0.004471  -0.036192  -0.032598  -0.035808
    22  C   -0.002481  -0.008760  -0.000003   0.002529   0.000110  -0.000059
    23  C    0.000488  -0.047756  -0.000552  -0.001806   0.002764   0.003044
    24  C   -0.000053  -0.029295   0.005935   0.000260  -0.000063  -0.000504
    25  C    0.262244  -0.000001  -0.000048   0.367205   0.374674  -0.002417
    26  C   -0.000258   0.000008  -0.094418   0.002878  -0.001147   0.364405
    27  C   -0.000042   0.000036   0.074243  -0.000112   0.000545  -0.053855
    28  C   -0.000003   0.009764  -0.036923   0.000003  -0.000011   0.002788
    29  C    0.000002   0.227960   0.000007  -0.000006   0.000001   0.000000
    30  C    0.000021   0.159494   0.000000  -0.000015  -0.000002   0.000000
    31  C    5.371403  -0.000001   0.000002  -0.049704  -0.046749   0.000140
    32  C   -0.000001   5.221233   0.000000  -0.000005   0.000000   0.000000
    33  C    0.000002   0.000000   4.685748   0.000000  -0.000015   0.000768
    34  H   -0.049704  -0.000005   0.000000   0.518130  -0.025845   0.000126
    35  H   -0.046749   0.000000  -0.000015  -0.025845   0.497943   0.002884
    36  H    0.000140   0.000000   0.000768   0.000126   0.002884   0.445293
    37  H    0.000000  -0.034945   0.000004   0.000000   0.000000   0.000000
    38  H    0.349217   0.000000   0.000000   0.000416  -0.000773  -0.000020
    39  H    0.366630   0.000000   0.000000   0.003253  -0.002410   0.000448
    40  H    0.367039   0.000001   0.000000  -0.003600   0.003055  -0.000002
    41  H    0.000000   0.000000  -0.030824   0.000000   0.000000  -0.000016
              37         38         39         40         41
     1  F   -0.001873   0.000000   0.000000   0.000000   0.000000
     2  H    0.000001   0.000050  -0.000034   0.003053   0.000000
     3  N   -0.000008   0.000000   0.000000  -0.000005   0.000000
     4  C    0.000000   0.000000   0.000000  -0.000006   0.000000
     5  C    0.000000   0.000000   0.000000   0.000005   0.000000
     6  N    0.000000   0.000000   0.000000   0.000000   0.000000
     7  C   -0.000002   0.000000   0.000000   0.000000   0.000000
     8  C    0.000000   0.000000   0.000000   0.000000   0.000000
     9  H    0.000000   0.000000   0.000000   0.000000   0.000000
    10  H    0.000000   0.000001   0.000000   0.000035   0.000000
    11  H    0.000000   0.000000   0.000000   0.000000   0.000000
    12  H    0.000000   0.000000   0.000000   0.000000   0.000000
    13  H    0.000017   0.000000   0.000000   0.000000   0.000000
    14  H    0.000000   0.000000   0.000000   0.000000   0.000000
    15  H    0.000000   0.000000   0.000000   0.000000   0.000000
    16  H    0.000000   0.000000   0.000000  -0.000001   0.000000
    17  H    0.000000   0.000000   0.000000   0.000008   0.000000
    18  O    0.014215   0.000000   0.000000   0.000000   0.000160
    19  O    0.000000   0.000000   0.000000   0.000000   0.238596
    20  O    0.000000   0.000000   0.000000   0.000000   0.005915
    21  N   -0.000012   0.002641  -0.001023  -0.001426   0.000000
    22  C   -0.000368   0.000018   0.000015   0.001747   0.000000
    23  C    0.003513  -0.000022  -0.000020   0.001300   0.000000
    24  C   -0.053541   0.000000   0.000001  -0.000021   0.000005
    25  C    0.000000  -0.034976  -0.040146  -0.040176   0.000000
    26  C   -0.000057  -0.000027   0.002423  -0.000066  -0.000280
    27  C    0.001208   0.000000  -0.000064   0.000013   0.012235
    28  C    0.001023   0.000000   0.000000  -0.000001  -0.000110
    29  C    0.369103   0.000000   0.000000  -0.000001   0.000000
    30  C    0.004843   0.000000   0.000000  -0.000006   0.000000
    31  C    0.000000   0.349217   0.366630   0.367039   0.000000
    32  C   -0.034945   0.000000   0.000000   0.000001   0.000000
    33  C    0.000004   0.000000   0.000000   0.000000  -0.030824
    34  H    0.000000   0.000416   0.003253  -0.003600   0.000000
    35  H    0.000000  -0.000773  -0.002410   0.003055   0.000000
    36  H    0.000000  -0.000020   0.000448  -0.000002  -0.000016
    37  H    0.456946   0.000000   0.000000   0.000000   0.000000
    38  H    0.000000   0.533327  -0.023915  -0.025349   0.000000
    39  H    0.000000  -0.023915   0.505273  -0.024606   0.000000
    40  H    0.000000  -0.025349  -0.024606   0.508874   0.000000
    41  H    0.000000   0.000000   0.000000   0.000000   0.415219
 Mulliken charges:
               1
     1  F   -0.287271
     2  H    0.195246
     3  N   -0.732321
     4  C   -0.185289
     5  C   -0.209457
     6  N   -0.569883
     7  C   -0.216111
     8  C   -0.215160
     9  H    0.276340
    10  H    0.204483
    11  H    0.218778
    12  H    0.207998
    13  H    0.241898
    14  H    0.203768
    15  H    0.171157
    16  H    0.198416
    17  H    0.170753
    18  O   -0.501795
    19  O   -0.540833
    20  O   -0.520489
    21  N   -0.830425
    22  C   -0.221336
    23  C    0.371622
    24  C   -0.078683
    25  C   -0.215834
    26  C    0.213927
    27  C   -0.206930
    28  C    0.398601
    29  C   -0.199472
    30  C    0.358373
    31  C   -0.560490
    32  C    0.279532
    33  C    0.658597
    34  H    0.220400
    35  H    0.227537
    36  H    0.251599
    37  H    0.239933
    38  H    0.199410
    39  H    0.214176
    40  H    0.210137
    41  H    0.359099
 Sum of Mulliken charges =   0.00000
 Mulliken charges with hydrogens summed into heavy atoms:
               1
     1  F   -0.287271
     3  N   -0.732321
     4  C    0.237971
     5  C    0.159711
     6  N   -0.293543
     7  C    0.233784
     8  C    0.159765
    18  O   -0.501795
    19  O   -0.181734
    20  O   -0.520489
    21  N   -0.830425
    22  C   -0.026090
    23  C    0.371622
    24  C   -0.078683
    25  C    0.232103
    26  C    0.465526
    27  C   -0.206930
    28  C    0.398601
    29  C    0.040461
    30  C    0.358373
    31  C    0.063234
    32  C    0.279532
    33  C    0.658597
 Electronic spatial extent (au):  <R**2>=           9337.3328
 Charge=              0.0000 electrons
 Dipole moment (field-independent basis, Debye):
    X=              5.9454    Y=              6.1078    Z=              0.3236  Tot=              8.5298
 Quadrupole moment (field-independent basis, Debye-Ang):
   XX=           -131.0364   YY=           -130.2558   ZZ=           -133.6581
   XY=             -3.0971   XZ=              6.0467   YZ=             -0.9787
 Traceless Quadrupole moment (field-independent basis, Debye-Ang):
   XX=              0.6138   YY=              1.3943   ZZ=             -2.0080
   XY=             -3.0971   XZ=              6.0467   YZ=             -0.9787
 Octapole moment (field-independent basis, Debye-Ang**2):
  XXX=             62.7181  YYY=             41.1036  ZZZ=              5.1709  XYY=             31.1145
  XXY=            -22.2739  XXZ=             58.5295  XZZ=             -1.1832  YZZ=             -4.3121
  YYZ=             -6.1215  XYZ=              0.6207
 Hexadecapole moment (field-independent basis, Debye-Ang**3):
 XXXX=          -8529.5052 YYYY=          -2235.7545 ZZZZ=           -318.6812 XXXY=            343.9427
 XXXZ=            165.9168 YYYX=            -93.4861 YYYZ=            -13.3537 ZZZX=            -17.1853
 ZZZY=             -0.6332 XXYY=          -1961.9010 XXZZ=          -1519.3485 YYZZ=           -431.9892
 XXYZ=             16.5176 YYXZ=             21.4334 ZZXY=              1.8669
 N-N= 1.934075082713D+03 E-N=-6.443816395584D+03  KE= 1.095180489222D+03
 PrsmSu:  requested number of processors reduced to:   9 ShMem   1 Linda.
 Calling FoFJK, ICntrl=      2127 FMM=F ISym2X=0 I1Cent= 0 IOpClX= 0 NMat=1 NMatS=1 NMatT=0.
 ***** Axes restored to original set *****
 -------------------------------------------------------------------
 Center     Atomic                   Forces (Hartrees/Bohr)
 Number     Number              X              Y              Z
 -------------------------------------------------------------------
      1        9          -0.001022116   -0.005302236   -0.000726774
      2        1          -0.003808226   -0.000321856   -0.004208787
      3        7          -0.006919833    0.008526644   -0.002686449
      4        6           0.016338978    0.005186631    0.001210900
      5        6           0.001380017    0.005618438    0.012900389
      6        7           0.003741254   -0.010105659    0.003855655
      7        6          -0.001805909   -0.005009100   -0.016656891
      8        6          -0.013269160   -0.003896317   -0.002089110
      9        1           0.002404690    0.000124048   -0.000538095
     10        1          -0.002826123   -0.002081999   -0.001055490
     11        1          -0.002871050    0.000538941    0.001795738
     12        1          -0.002405621    0.000213892    0.002201388
     13        1           0.003481229    0.001954388    0.002448303
     14        1           0.001194353    0.000888267    0.000489824
     15        1           0.002199412    0.002060411   -0.001413280
     16        1          -0.001183903    0.001110346   -0.001351992
     17        1           0.001385537   -0.000551620   -0.001515589
     18        8          -0.002984158   -0.001468431   -0.003750924
     19        8           0.000937153   -0.010942153   -0.002350005
     20        8           0.002173059    0.007404148    0.003990405
[...]
    19  O    0.000000   0.000000   0.000000   0.000000   0.000000  -0.000857
    20  O    0.000000   0.000000   0.000000   0.000000   0.000000  -0.000001
    21  N    0.000000   0.000000   0.000000   0.000000   0.000000  -0.000025
    22  C   -0.000032  -0.000004  -0.000146   0.000010  -0.000371   0.000003
    23  C    0.000012   0.000000   0.000002   0.000001  -0.000001   0.003325
    24  C   -0.000033   0.000000   0.000000   0.000000   0.000002  -0.126484
    25  C    0.000000   0.000000   0.000000   0.000000  -0.000021   0.000000
    26  C    0.000000   0.000000   0.000000   0.000000   0.000000   0.003384
    27  C    0.000000   0.000000   0.000000   0.000000   0.000000  -0.113249
    28  C    0.000000   0.000000   0.000000   0.000000   0.000000   0.637913
    29  C    0.000488   0.000000  -0.000011   0.000000  -0.000002   0.003843
    30  C   -0.008641  -0.000003   0.002500  -0.000004   0.001590  -0.000006
    31  C    0.000000   0.000000   0.000000   0.000001   0.000025   0.000000
    32  C   -0.001615  -0.000011   0.000042   0.000001  -0.000015   0.000690
    33  C    0.000000   0.000000   0.000000   0.000000   0.000000  -0.004078
    34  H    0.000000   0.000000   0.000000   0.000001  -0.000013   0.000000
    35  H    0.000000   0.000000   0.000000   0.000000   0.000000   0.000000
    36  H    0.000000   0.000000   0.000000   0.000000   0.000000  -0.000002
    37  H    0.000010   0.000000   0.000000   0.000000   0.000000   0.017526
    38  H    0.000000   0.000000   0.000000   0.000000  -0.000003   0.000000
    39  H    0.000000   0.000000   0.000000   0.000000  -0.000001   0.000000
    40  H    0.000000   0.000000   0.000006  -0.000007   0.001067   0.000000
    41  H    0.000000   0.000000   0.000000   0.000000   0.000000   0.000206
              19         20         21         22         23         24
     1  F    0.000000   0.000000   0.000000   0.002190  -0.000190   0.002814
     2  H    0.000000   0.000000  -0.007614   0.390908  -0.050448   0.004860
     3  N    0.000000   0.000000  -0.000003  -0.055856   0.004899  -0.000358
     4  C    0.000000   0.000000   0.000001  -0.004168   0.000252   0.000002
     5  C    0.000000   0.000000   0.000000  -0.000233  -0.000007  -0.000001
     6  N    0.000000   0.000000   0.000000   0.000043   0.000000   0.000000
     7  C    0.000000   0.000000   0.000000   0.001663  -0.000073   0.000006
     8  C    0.000000   0.000000   0.000000   0.000181   0.000002  -0.000001
     9  H    0.000000   0.000000   0.000000   0.000001   0.000000   0.000000
    10  H    0.000000   0.000000   0.000000   0.001389   0.000014  -0.000006
    11  H    0.000000   0.000000   0.000000   0.000115  -0.000001   0.000000
    12  H    0.000000   0.000000   0.000000  -0.000089   0.000001   0.000000
    13  H    0.000000   0.000000   0.000000  -0.000032   0.000012  -0.000033
    14  H    0.000000   0.000000   0.000000  -0.000004   0.000000   0.000000
    15  H    0.000000   0.000000   0.000000  -0.000146   0.000002   0.000000
    16  H    0.000000   0.000000   0.000000   0.000010   0.000001   0.000000
    17  H    0.000000   0.000000   0.000000  -0.000371  -0.000001   0.000002
    18  O   -0.000857  -0.000001  -0.000025   0.000003   0.003325  -0.126484
    19  O    8.229860  -0.061788  -0.000001   0.000000  -0.000002   0.000119
    20  O   -0.061788   8.147670   0.000098   0.000000   0.000002  -0.000018
    21  N   -0.000001   0.000098   7.420026  -0.047481   0.187842  -0.030464
    22  C    0.000000   0.000000  -0.047481   5.379323   0.356411  -0.046575
    23  C   -0.000002   0.000002   0.187842   0.356411   5.078807   0.297275
    24  C    0.000119  -0.000018  -0.030464  -0.046575   0.297275   6.061403
    25  C    0.000000   0.000004   0.253325  -0.003273  -0.052325   0.001139
    26  C    0.003301   0.002783   0.244184   0.002115  -0.066061  -0.014938
    27  C   -0.092644  -0.114580  -0.014553  -0.000790  -0.025332  -0.169647
    28  C    0.002093   0.001949  -0.036224   0.005864   0.003716  -0.027313
    29  C    0.000000   0.000000   0.005646  -0.044004  -0.065390   0.236723
    30  C    0.000000   0.000000   0.004374   0.293237  -0.002808  -0.038670
    31  C    0.000000   0.000000  -0.055532  -0.002672  -0.000246  -0.000034
    32  C    0.000000   0.000000  -0.000365  -0.013537  -0.044804  -0.022405
    33  C    0.222812   0.517195   0.004719  -0.000003  -0.000569   0.005968
    34  H    0.000000   0.000000  -0.034448   0.002013  -0.001514   0.000182
    35  H    0.000000  -0.000005  -0.031408   0.000108   0.002756  -0.000063
    36  H    0.000290   0.023205  -0.034114  -0.000055   0.003067  -0.000540
    37  H    0.000000   0.000000  -0.000011  -0.000388   0.003584  -0.058119
    38  H    0.000000   0.000000   0.002562   0.000005  -0.000007   0.000000
    39  H    0.000000   0.000000  -0.000391   0.000025   0.000011  -0.000001
    40  H    0.000000   0.000000  -0.002148   0.002544   0.001708  -0.000039
    41  H    0.236774   0.004505   0.000000   0.000000   0.000000   0.000005
              25         26         27         28         29         30
     1  F    0.000000   0.000000   0.000000  -0.000004  -0.056999  -0.059624
     2  H    0.001539  -0.000012   0.000004  -0.000005  -0.000465  -0.047836
     3  N    0.000000   0.000000   0.000000   0.000000   0.004374   0.274646
     4  C   -0.000012   0.000000   0.000000   0.000000  -0.000094  -0.062978
     5  C    0.000005   0.000000   0.000000   0.000000   0.000004  -0.000126
     6  N    0.000000   0.000000   0.000000   0.000000   0.000000  -0.000118
     7  C    0.000000   0.000000   0.000000   0.000000   0.000009  -0.056068
     8  C    0.000000   0.000000   0.000000   0.000000   0.000021   0.000494
     9  H    0.000000   0.000000   0.000000   0.000000   0.000000  -0.000006
    10  H   -0.000027   0.000000   0.000000   0.000000  -0.000008  -0.002705
    11  H    0.000000   0.000000   0.000000   0.000000   0.000000   0.003138
    12  H    0.000000   0.000000   0.000000   0.000000  -0.000005   0.002737
    13  H    0.000000   0.000000   0.000000   0.000000   0.000488  -0.008641
    14  H    0.000000   0.000000   0.000000   0.000000   0.000000  -0.000003
    15  H    0.000000   0.000000   0.000000   0.000000  -0.000011   0.002500
    16  H    0.000000   0.000000   0.000000   0.000000   0.000000  -0.000004
    17  H   -0.000021   0.000000   0.000000   0.000000  -0.000002   0.001590
    18  O    0.000000   0.003384  -0.113249   0.637913   0.003843  -0.000006
    19  O    0.000000   0.003301  -0.092644   0.002093   0.000000   0.000000
    20  O    0.000004   0.002783  -0.114580   0.001949   0.000000   0.000000
    21  N    0.253325   0.244184  -0.014553  -0.036224   0.005646   0.004374
    22  C   -0.003273   0.002115  -0.000790   0.005864  -0.044004   0.293237
    23  C   -0.052325  -0.066061  -0.025332   0.003716  -0.065390  -0.002808
    24  C    0.001139  -0.014938  -0.169647  -0.027313   0.236723  -0.038670
    25  C    5.190347  -0.059807   0.002191   0.000037  -0.000076   0.000127
    26  C   -0.059807   5.115441   0.314059  -0.023888  -0.001309  -0.000078
    27  C    0.002191   0.314059   6.450442  -0.063540   0.015679  -0.000011
    28  C    0.000037  -0.023888  -0.063540   5.197560  -0.076332  -0.000969
    29  C   -0.000076  -0.001309   0.015679  -0.076332   5.698489  -0.085708
    30  C    0.000127  -0.000078  -0.000011  -0.000969  -0.085708   5.292400
    31  C    0.263442   0.000108  -0.000055  -0.000003   0.000003   0.000023
    32  C   -0.000003   0.000013   0.000010   0.009457   0.193843   0.158211
    33  C   -0.000043  -0.097677   0.064200  -0.037442   0.000000   0.000000
    34  H    0.366457   0.002414  -0.000101   0.000002  -0.000004  -0.000006
    35  H    0.373134  -0.000001   0.000457  -0.000008   0.000001  -0.000003
    36  H   -0.001874   0.363118  -0.059602   0.002934   0.000000   0.000000
    37  H    0.000000  -0.000065   0.001489   0.001085   0.368474   0.004920
    38  H   -0.035102  -0.000019   0.000000   0.000000   0.000000   0.000000
    39  H   -0.039254   0.001972  -0.000061   0.000000   0.000000   0.000000
    40  H   -0.039895  -0.000079   0.000016  -0.000001  -0.000003  -0.000017
    41  H    0.000000  -0.000293   0.011878  -0.000055   0.000000   0.000000
              31         32         33         34         35         36
     1  F    0.000000   0.298505   0.000000   0.000000   0.000000   0.000000
     2  H   -0.000619   0.004203   0.000000   0.002601   0.000091   0.000002
     3  N    0.000001  -0.070568   0.000000   0.000003   0.000000   0.000000
     4  C    0.000004   0.000886   0.000000  -0.000030   0.000000   0.000000
     5  C   -0.000035  -0.000137   0.000000  -0.000006   0.000000   0.000000
     6  N    0.000000  -0.000006   0.000000   0.000000   0.000000   0.000000
     7  C    0.000000  -0.002372   0.000000   0.000000   0.000000   0.000000
     8  C    0.000000   0.000530   0.000000   0.000000   0.000000   0.000000
     9  H    0.000000   0.000000   0.000000   0.000000   0.000000   0.000000
    10  H   -0.000005   0.000231   0.000000   0.000258   0.000000   0.000000
    11  H    0.000000   0.000007   0.000000   0.000000   0.000000   0.000000
    12  H    0.000000   0.000131   0.000000   0.000000   0.000000   0.000000
    13  H    0.000000  -0.001615   0.000000   0.000000   0.000000   0.000000
    14  H    0.000000  -0.000011   0.000000   0.000000   0.000000   0.000000
    15  H    0.000000   0.000042   0.000000   0.000000   0.000000   0.000000
    16  H    0.000001   0.000001   0.000000   0.000001   0.000000   0.000000
    17  H    0.000025  -0.000015   0.000000  -0.000013   0.000000   0.000000
    18  O    0.000000   0.000690  -0.004078   0.000000   0.000000  -0.000002
    19  O    0.000000   0.000000   0.222812   0.000000   0.000000   0.000290
    20  O    0.000000   0.000000   0.517195   0.000000  -0.000005   0.023205
    21  N   -0.055532  -0.000365   0.004719  -0.034448  -0.031408  -0.034114
    22  C   -0.002672  -0.013537  -0.000003   0.002013   0.000108  -0.000055
    23  C   -0.000246  -0.044804  -0.000569  -0.001514   0.002756   0.003067
    24  C   -0.000034  -0.022405   0.005968   0.000182  -0.000063  -0.000540
    25  C    0.263442  -0.000003  -0.000043   0.366457   0.373134  -0.001874
    26  C    0.000108   0.000013  -0.097677   0.002414  -0.000001   0.363118
    27  C   -0.000055   0.000010   0.064200  -0.000101   0.000457  -0.059602
    28  C   -0.000003   0.009457  -0.037442   0.000002  -0.000008   0.002934
    29  C    0.000003   0.193843   0.000000  -0.000004   0.000001   0.000000
    30  C    0.000023   0.158211   0.000000  -0.000006  -0.000003   0.000000
    31  C    5.371409  -0.000001   0.000002  -0.050386  -0.044346   0.000026
    32  C   -0.000001   5.242280   0.000000  -0.000001   0.000000   0.000000
    33  C    0.000002   0.000000   4.691769   0.000001  -0.000016   0.000666
    34  H   -0.050386  -0.000001   0.000001   0.516276  -0.025130   0.000096
    35  H   -0.044346   0.000000  -0.000016  -0.025130   0.493433   0.003167
    36  H    0.000026   0.000000   0.000666   0.000096   0.003167   0.445223
    37  H    0.000000  -0.033994   0.000005   0.000000   0.000000   0.000000
    38  H    0.350528   0.000000   0.000000   0.000325  -0.000473  -0.000010
    39  H    0.366932   0.000000   0.000000   0.003208  -0.002657   0.000244
    40  H    0.365469   0.000000   0.000000  -0.003185   0.002980   0.000001
    41  H    0.000000   0.000000  -0.028773   0.000000   0.000000  -0.000017
              37         38         39         40         41
     1  F   -0.001846   0.000000   0.000000   0.000000   0.000000
     2  H    0.000001   0.000077  -0.000015   0.002308   0.000000
     3  N   -0.000010   0.000000   0.000000  -0.000010   0.000000
     4  C    0.000000   0.000000   0.000000  -0.000015   0.000000
     5  C    0.000000   0.000001   0.000000   0.000027   0.000000
     6  N    0.000000   0.000000   0.000000  -0.000001   0.000000
     7  C   -0.000001   0.000000   0.000000   0.000000   0.000000
     8  C    0.000000   0.000000   0.000000  -0.000001   0.000000
     9  H    0.000000   0.000000   0.000000   0.000000   0.000000
    10  H    0.000000   0.000001   0.000000  -0.000023   0.000000
    11  H    0.000000   0.000000   0.000000   0.000000   0.000000
    12  H    0.000000   0.000000   0.000000   0.000000   0.000000
    13  H    0.000010   0.000000   0.000000   0.000000   0.000000
    14  H    0.000000   0.000000   0.000000   0.000000   0.000000
    15  H    0.000000   0.000000   0.000000   0.000006   0.000000
    16  H    0.000000   0.000000   0.000000  -0.000007   0.000000
    17  H    0.000000  -0.000003  -0.000001   0.001067   0.000000
    18  O    0.017526   0.000000   0.000000   0.000000   0.000206
    19  O    0.000000   0.000000   0.000000   0.000000   0.236774
    20  O    0.000000   0.000000   0.000000   0.000000   0.004505
    21  N   -0.000011   0.002562  -0.000391  -0.002148   0.000000
    22  C   -0.000388   0.000005   0.000025   0.002544   0.000000
    23  C    0.003584  -0.000007   0.000011   0.001708   0.000000
    24  C   -0.058119   0.000000  -0.000001  -0.000039   0.000005
    25  C    0.000000  -0.035102  -0.039254  -0.039895   0.000000
    26  C   -0.000065  -0.000019   0.001972  -0.000079  -0.000293
    27  C    0.001489   0.000000  -0.000061   0.000016   0.011878
    28  C    0.001085   0.000000   0.000000  -0.000001  -0.000055
    29  C    0.368474   0.000000   0.000000  -0.000003   0.000000
    30  C    0.004920   0.000000   0.000000  -0.000017   0.000000
    31  C    0.000000   0.350528   0.366932   0.365469   0.000000
    32  C   -0.033994   0.000000   0.000000   0.000000   0.000000
    33  C    0.000005   0.000000   0.000000   0.000000  -0.028773
    34  H    0.000000   0.000325   0.003208  -0.003185   0.000000
    35  H    0.000000  -0.000473  -0.002657   0.002980   0.000000
    36  H    0.000000  -0.000010   0.000244   0.000001  -0.000017
    37  H    0.456801   0.000000   0.000000   0.000000   0.000000
    38  H    0.000000   0.531457  -0.023574  -0.024749   0.000000
    39  H    0.000000  -0.023574   0.502883  -0.024837   0.000000
    40  H    0.000000  -0.024749  -0.024837   0.504118   0.000000
    41  H    0.000000   0.000000   0.000000   0.000000   0.417330
 Mulliken charges:
               1
     1  F   -0.285832
     2  H    0.193318
     3  N   -0.678302
     4  C   -0.194810
     5  C   -0.227792
     6  N   -0.562359
     7  C   -0.231220
     8  C   -0.222824
     9  H    0.276394
    10  H    0.199474
    11  H    0.228582
    12  H    0.216599
    13  H    0.232151
    14  H    0.202709
    15  H    0.174267
    16  H    0.198988
    17  H    0.169034
    18  O   -0.500661
    19  O   -0.539958
    20  O   -0.521017
    21  N   -0.827995
    22  C   -0.218471
    23  C    0.366091
    24  C   -0.074790
    25  C   -0.220034
    26  C    0.211334
    27  C   -0.206259
    28  C    0.403175
    29  C   -0.197185
    30  C    0.327989
    31  C   -0.564042
    32  C    0.280793
    33  C    0.661265
    34  H    0.220988
    35  H    0.227984
    36  H    0.254176
    37  H    0.240537
    38  H    0.198981
    39  H    0.215515
    40  H    0.214766
    41  H    0.358440
 Sum of Mulliken charges =   0.00000
 Mulliken charges with hydrogens summed into heavy atoms:
               1
     1  F   -0.285832
     3  N   -0.678302
     4  C    0.233246
     5  C    0.140229
     6  N   -0.285965
     7  C    0.217530
     8  C    0.154153
    18  O   -0.500661
    19  O   -0.181518
    20  O   -0.521017
    21  N   -0.827995
    22  C   -0.025153
    23  C    0.366091
    24  C   -0.074790
    25  C    0.228938
    26  C    0.465510
    27  C   -0.206259
    28  C    0.403175
    29  C    0.043352
    30  C    0.327989
    31  C    0.065219
    32  C    0.280793
    33  C    0.661265
 Electronic spatial extent (au):  <R**2>=           8827.5831
 Charge=              0.0000 electrons
 Dipole moment (field-independent basis, Debye):
    X=              5.4454    Y=              6.1819    Z=              0.3882  Tot=              8.2474
 Quadrupole moment (field-independent basis, Debye-Ang):
   XX=           -135.2598   YY=           -131.0152   ZZ=           -132.0655
   XY=              0.4195   XZ=              5.5054   YZ=             -1.8096
 Traceless Quadrupole moment (field-independent basis, Debye-Ang):
   XX=             -2.4796   YY=              1.7649   ZZ=              0.7147
   XY=              0.4195   XZ=              5.5054   YZ=             -1.8096
 Octapole moment (field-independent basis, Debye-Ang**2):
  XXX=             10.1659  YYY=             39.6426  ZZZ=              8.0891  XYY=             32.8867
  XXY=            -19.7581  XXZ=             37.6351  XZZ=              6.9200  YZZ=             -1.7931
  YYZ=             -3.0047  XYZ=             -2.0482
 Hexadecapole moment (field-independent basis, Debye-Ang**3):
 XXXX=          -8035.3200 YYYY=          -2228.3908 ZZZZ=           -401.8976 XXXY=            373.6619
 XXXZ=             96.9354 YYYX=            -61.0938 YYYZ=            -11.8073 ZZZX=              1.2984
 ZZZY=             -0.6035 XXYY=          -1859.7649 XXZZ=          -1377.9413 YYZZ=           -439.6824
 XXYZ=              7.0036 YYXZ=             27.9952 ZZXY=             10.2203
 N-N= 1.953135334427D+03 E-N=-6.481955447228D+03  KE= 1.095087883169D+03
 1\1\GINC-NODE036\FOpt\RB3LYP\3-21G\C16H18F1N3O3\SUPERCOMPUTO1\06-Jul-2
 020\0\\# opt b3lyp/3-21g geom=connectivity\\Title Card Required\\0,1\F
 ,6.2325032723,5.65766618,5.0232242733\H,8.6001698556,7.5341577429,8.42
 50247282\N,8.1339582893,5.2737456213,7.0841380736\C,9.3203053494,5.104
 4264375,7.94756466\C,8.8980705065,4.6524383623,9.3612715765\N,8.152261
 6075,3.3814372791,9.2079222803\C,7.3645393118,4.0044476767,6.971505239
 9\C,6.9337796645,3.5466189662,8.3781464441\H,7.9421693097,2.9513643982
 ,10.1129041413\H,9.9055472518,6.0255146912,7.9672951155\H,9.9302320231
 ,4.3050027992,7.5119990905\H,8.0281454853,3.2430436688,6.5477605202\H,
 6.5125556409,4.1561752823,6.3183678631\H,6.4248458847,2.5797175602,8.3
 073783753\H,6.2270454492,4.2927619675,8.785898998\H,9.7875806436,4.468
 9656864,9.9730591787\H,8.3017115605,5.4575337379,9.8304753775\O,4.9516
 672862,10.4455185087,5.0445761934\O,4.9076247596,13.0929139836,5.69848
 46505\O,6.2383967292,13.7977542549,7.4126573697\N,7.7488246568,10.0612
 078279,8.0827352643\C,7.9151460848,7.6554096434,7.6025551016\C,7.37772
 96271,8.9239702972,7.3384681615\C,6.4272977395,9.0805119343,6.31353308
 8\C,8.7018637313,9.9727621599,9.2217842463\C,7.184834122,11.2625299437
 ,7.7859959621\C,6.2626010277,11.4789044723,6.8005049558\C,5.7909727424
 ,10.3751891819,5.9643450325\C,6.0614996346,7.9520799584,5.5711963384\C
 ,7.5613197198,6.5165379632,6.8564721424\C,8.0256254556,9.4529488095,10
 .5052068561\C,6.6118111816,6.7251371582,5.8171168564\C,5.828859224,12.
 8783241482,6.6914502473\H,9.5391287693,9.3358577995,8.9243343838\H,9.0
 932450639,10.9802653626,9.3836015455\H,7.5000699992,12.1137571486,8.37
 85215426\H,5.3428985246,8.0873644768,4.7733936718\H,8.7593745645,9.400
 1806981,11.3165708814\H,7.2195864572,10.1297121884,10.8036348771\H,7.6
 009309798,8.4578613711,10.3470645069\H,4.6841408136,14.0648826517,5.70
 97401886\\Version=ES64L-G09RevD.01\State=1-A\HF=-1104.2316072\RMSD=2.9
 08e-09\RMSF=8.394e-06\Dipole=1.6022912,-1.4428664,2.4247274\Quadrupole
 =0.1576233,-0.7288837,0.5712603,4.0324907,0.8823571,-1.9702152\PG=C01 
 [X(C16H18F1N3O3)]\\@


 Some scientists claim that hydrogen, because it is so
 plentiful, is the basic building block of the universe. 
 I dispute that. I say that stupidity is far more
 abundant than hydrogen, and THAT is the basic building 
 block of the universe.
                   --Frank Zappa
 Job cpu time:       0 days  1 hours 17 minutes  6.2 seconds.
 File lengths (MBytes):  RWF=     40 Int=      0 D2E=      0 Chk=      6 Scr=      1
 Normal termination of Gaussian 09 at Mon Jul  6 11:16:32 2020.
