 Entering Gaussian System, Link 0=g09
 Input=esparfloxacina.gjf
 Output=esparfloxacina.log
 Initial command:
 /usr/local/cluster_programs/g09/l1.exe "/tmp/scratch/64221.prometeo/Gau-2645.inp" -scrdir="/tmp/scratch/64221.prometeo/"
 Entering Link 1 = /usr/local/cluster_programs/g09/l1.exe PID=      2646.
  
 Copyright (c) 1988,1990,1992,1993,1995,1998,2003,2009,2013,
            Gaussian, Inc.  All Rights Reserved.
  
 This is part of the Gaussian(R) 09 program.  It is based on
 the Gaussian(R) 03 system (copyright 2003, Gaussian, Inc.),
 the Gaussian(R) 98 system (copyright 1998, Gaussian, Inc.),
 the Gaussian(R) 94 system (copyright 1995, Gaussian, Inc.),
 the Gaussian 92(TM) system (copyright 1992, Gaussian, Inc.),
 the Gaussian 90(TM) system (copyright 1990, Gaussian, Inc.),
 the Gaussian 88(TM) system (copyright 1988, Gaussian, Inc.),
 the Gaussian 86(TM) system (copyright 1986, Carnegie Mellon
 University), and the Gaussian 82(TM) system (copyright 1983,
 Carnegie Mellon University). Gaussian is a federally registered
 trademark of Gaussian, Inc.
  
 This software contains proprietary and confidential information,
 including trade secrets, belonging to Gaussian, Inc.
  
 This software is provided under written license and may be
 used, copied, transmitted, or stored only in accord with that
 written license.
  
 The following legend is applicable only to US Government
 contracts under FAR:
  
                    RESTRICTED RIGHTS LEGEND
  
 Use, reproduction and disclosure by the US Government is
 subject to restrictions as set forth in subparagraphs (a)
 and (c) of the Commercial Computer Software - Restricted
 Rights clause in FAR 52.227-19.
  
 Gaussian, Inc.
 340 Quinnipiac St., Bldg. 40, Wallingford CT 06492
  
  
 ---------------------------------------------------------------
 Warning -- This program may not be used in any manner that
 competes with the business of Gaussian, Inc. or will provide
 assistance to any competitor of Gaussian, Inc.  The licensee
 of this program is prohibited from giving any competitor of
 Gaussian, Inc. access to this program.  By using this program,
 the user acknowledges that Gaussian, Inc. is engaged in the
 business of creating and licensing software in the field of
 computational chemistry and represents and warrants to the
 licensee that it is not a competitor of Gaussian, Inc. and that
 it will not use this program in any manner prohibited above.
 ---------------------------------------------------------------
  

 Cite this work as:
 Gaussian 09, Revision D.01,
 M. J. Frisch, G. W. Trucks, H. B. Schlegel, G. E. Scuseria, 
 M. A. Robb, J. R. Cheeseman, G. Scalmani, V. Barone, B. Mennucci, 
 G. A. Petersson, H. Nakatsuji, M. Caricato, X. Li, H. P. Hratchian, 
 A. F. Izmaylov, J. Bloino, G. Zheng, J. L. Sonnenberg, M. Hada, 
 M. Ehara, K. Toyota, R. Fukuda, J. Hasegawa, M. Ishida, T. Nakajima, 
 Y. Honda, O. Kitao, H. Nakai, T. Vreven, J. A. Montgomery, Jr., 
 J. E. Peralta, F. Ogliaro, M. Bearpark, J. J. Heyd, E. Brothers, 
 K. N. Kudin, V. N. Staroverov, T. Keith, R. Kobayashi, J. Normand, 
 K. Raghavachari, A. Rendell, J. C. Burant, S. S. Iyengar, J. Tomasi, 
 M. Cossi, N. Rega, J. M. Millam, M. Klene, J. E. Knox, J. B. Cross, 
 V. Bakken, C. Adamo, J. Jaramillo, R. Gomperts, R. E. Stratmann, 
 O. Yazyev, A. J. Austin, R. Cammi, C. Pomelli, J. W. Ochterski, 
 R. L. Martin, K. Morokuma, V. G. Zakrzewski, G. A. Voth, 
 P. Salvador, J. J. Dannenberg, S. Dapprich, A. D. Daniels, 
 O. Farkas, J. B. Foresman, J. V. Ortiz, J. Cioslowski, 
 and D. J. Fox, Gaussian, Inc., Wallingford CT, 2013.
 
 ******************************************
 Gaussian 09:  ES64L-G09RevD.01 24-Apr-2013
                21-Jul-2020 
 ******************************************
 %nprocshared=20
 Will use up to   20 processors via shared memory.
 -----------------------------------------------------
 #opt M06/lanl2dz integral=ultrafine geom=connectivity
 -----------------------------------------------------
 1/14=-1,18=20,19=15,26=4,38=1,57=2/1,3;
 2/9=110,12=2,17=6,18=5,40=1/2;
 3/5=6,6=3,11=2,16=1,25=1,30=1,71=1,74=-54,75=-5/1,2,3;
 4//1;
 5/5=2,38=5/2;
 6/7=2,8=2,9=2,10=2,28=1/1;
 7//1,2,3,16;
 1/14=-1,18=20,19=15,26=4/3(2);
 2/9=110/2;
 99//99;
 2/9=110/2;
 3/5=6,6=3,11=2,16=1,25=1,30=1,71=1,74=-54,75=-5/1,2,3;
 4/5=5,16=3,69=1/1;
 5/5=2,38=5/2;
 7//1,2,3,16;
 1/14=-1,18=20,19=15,26=4/3(-5);
 2/9=110/2;
 6/7=2,8=2,9=2,10=2,19=2,28=1/1;
 99/9=1/99;
 -------------------
 Title Card Required
 -------------------
 Symbolic Z-matrix:
 Charge =  0 Multiplicity = 1
 F(PDBName=F1,ResName=MOL,ResNum=1) 0     0.53287   1.97252  -1.04623  L 
 F(PDBName=F2,ResName=MOL,ResNum=1) 0     1.91994  -2.48891   0.07605  L 
 O(PDBName=O3,ResName=MOL,ResNum=1) 0    -3.11361  -2.61917   0.53098  L 
 O(PDBName=O4,ResName=MOL,ResNum=1) 0    -5.67306  -1.8382    0.4138   L 
 O(PDBName=O5,ResName=MOL,ResNum=1) 0    -6.09518   0.36104  -0.01338  L 
 N(PDBName=N6,ResName=MOL,ResNum=1) 0    -2.14768   1.30176  -0.39553  L 
 N(PDBName=N7,ResName=MOL,ResNum=1) 0     2.58587   0.16479  -0.78363  L 
 N(PDBName=N8,ResName=MOL,ResNum=1) 0     5.08952   0.13116   0.66875  L 
 N(PDBName=N9,ResName=MOL,ResNum=1) 0    -0.61135  -3.24196   0.44026  L 
 C(PDBName=C10,ResName=MOL,ResNum=1) 0    -1.8855    2.73494  -0.57719  L 
 C(PDBName=C11,ResName=MOL,ResNum=1) 0    -1.22148   3.49411   0.54755  L 
 C(PDBName=C12,ResName=MOL,ResNum=1) 0    -2.6984    3.72563   0.24436  L 
 C(PDBName=C13,ResName=MOL,ResNum=1) 0    -1.10236   0.35149  -0.32898  L 
 C(PDBName=C14,ResName=MOL,ResNum=1) 0     4.03221   1.13138   0.98337  L 
 C(PDBName=C15,ResName=MOL,ResNum=1) 0     4.56065  -1.11402   0.04483  L 
 C(PDBName=C16,ResName=MOL,ResNum=1) 0     3.14423   1.43283  -0.24719  L 
 C(PDBName=C17,ResName=MOL,ResNum=1) 0     3.64549  -0.79993  -1.16385  L 
 C(PDBName=C18,ResName=MOL,ResNum=1) 0     1.28609  -0.22693  -0.49277  L 
 C(PDBName=C19,ResName=MOL,ResNum=1) 0    -3.43317   0.89268  -0.25271  L 
 C(PDBName=C20,ResName=MOL,ResNum=1) 0    -1.4344   -0.99229   0.00186  L 
 C(PDBName=C21,ResName=MOL,ResNum=1) 0     0.21667   0.68909  -0.61273  L 
 C(PDBName=C22,ResName=MOL,ResNum=1) 0    -0.38104  -1.9503    0.10786  L 
 C(PDBName=C23,ResName=MOL,ResNum=1) 0    -3.82006  -0.38487   0.02776  L 
 C(PDBName=C24,ResName=MOL,ResNum=1) 0     0.9323   -1.51972  -0.11308  L 
 C(PDBName=C25,ResName=MOL,ResNum=1) 0    -2.82266  -1.43055   0.21795  L 
 C(PDBName=C26,ResName=MOL,ResNum=1) 0     4.69271   2.40867   1.52151  L 
 C(PDBName=C27,ResName=MOL,ResNum=1) 0     5.73617  -2.01338  -0.35972  L 
 C(PDBName=C28,ResName=MOL,ResNum=1) 0    -5.2757   -0.55565   0.13364  L 
 H(PDBName=H29,ResName=MOL,ResNum=1) 0    -1.61802   3.00938  -1.58822  L 
 H(PDBName=H30,ResName=MOL,ResNum=1) 0    -0.49941   4.2507    0.26933  L 
 H(PDBName=H31,ResName=MOL,ResNum=1) 0    -0.99058   2.93158   1.44367  L 
 H(PDBName=H32,ResName=MOL,ResNum=1) 0    -3.41065   3.33509   0.95989  L 
 H(PDBName=H33,ResName=MOL,ResNum=1) 0    -2.99206   4.6443   -0.24797  L 
 H(PDBName=H34,ResName=MOL,ResNum=1) 0     3.39426   0.68703   1.75745  L 
 H(PDBName=H35,ResName=MOL,ResNum=1) 0     3.93778  -1.62051   0.78705  L 
 H(PDBName=H36,ResName=MOL,ResNum=1) 0     2.33177   2.11295  -0.00458  L 
 H(PDBName=H37,ResName=MOL,ResNum=1) 0     3.76668   1.89331  -1.02829  L 
 H(PDBName=H38,ResName=MOL,ResNum=1) 0     4.24798  -0.32789  -1.95345  L 
 H(PDBName=H39,ResName=MOL,ResNum=1) 0     3.19014  -1.70727  -1.55533  L 
 H(PDBName=H40,ResName=MOL,ResNum=1) 0    -4.20041   1.64731  -0.36115  L 
 H(PDBName=H41,ResName=MOL,ResNum=1) 0     5.79627   0.55712   0.05079  L 
 H(PDBName=H42,ResName=MOL,ResNum=1) 0     5.3511    2.15271   2.35621  L 
 H(PDBName=H43,ResName=MOL,ResNum=1) 0     5.29463   2.88481   0.73654  L 
 H(PDBName=H44,ResName=MOL,ResNum=1) 0     3.93924   3.12711   1.86151  L 
 H(PDBName=H45,ResName=MOL,ResNum=1) 0     5.37924  -2.98254  -0.72387  L 
 H(PDBName=H46,ResName=MOL,ResNum=1) 0     6.32288  -1.53882  -1.15727  L 
 H(PDBName=H47,ResName=MOL,ResNum=1) 0     6.38848  -2.17104   0.5038   L 
 H(PDBName=H48,ResName=MOL,ResNum=1) 0    -1.59548  -3.48797   0.60578  L 
 H(PDBName=H49,ResName=MOL,ResNum=1) 0     0.17031  -3.88018   0.50501  L 
 H(PDBName=H50,ResName=MOL,ResNum=1) 0    -6.66961  -1.82844   0.45982  L 
 
 Center=      0.68387218      0.26609928      0.06500504
 Residue   1 PDB Number     1_0 MOL charge    0.00000000 layers R        AvRTP=      0.00000000    180.00000000     90.00000000

 GradGradGradGradGradGradGradGradGradGradGradGradGradGradGradGradGradGrad
 Berny optimization.
 Initialization pass.
                           ----------------------------
                           !    Initial Parameters    !
                           ! (Angstroms and Degrees)  !
 --------------------------                            --------------------------
 ! Name  Definition              Value          Derivative Info.                !
 --------------------------------------------------------------------------------
 ! R1    R(1,21)                 1.3911         estimate D2E/DX2                !
 ! R2    R(2,24)                 1.3966         estimate D2E/DX2                !
 ! R3    R(3,25)                 1.2631         estimate D2E/DX2                !
 ! R4    R(4,28)                 1.3716         estimate D2E/DX2                !
 ! R5    R(4,50)                 0.9977         estimate D2E/DX2                !
 ! R6    R(5,28)                 1.2383         estimate D2E/DX2                !
 ! R7    R(6,10)                 1.4682         estimate D2E/DX2                !
 ! R8    R(6,13)                 1.4143         estimate D2E/DX2                !
 ! R9    R(6,19)                 1.3566         estimate D2E/DX2                !
 ! R10   R(7,16)                 1.4858         estimate D2E/DX2                !
 ! R11   R(7,17)                 1.4826         estimate D2E/DX2                !
 ! R12   R(7,18)                 1.3883         estimate D2E/DX2                !
 ! R13   R(8,14)                 1.4891         estimate D2E/DX2                !
 ! R14   R(8,15)                 1.4898         estimate D2E/DX2                !
 ! R15   R(8,41)                 1.0309         estimate D2E/DX2                !
 ! R16   R(9,22)                 1.3535         estimate D2E/DX2                !
 ! R17   R(9,48)                 1.0278         estimate D2E/DX2                !
 ! R18   R(9,49)                 1.0112         estimate D2E/DX2                !
 ! R19   R(10,11)                1.5107         estimate D2E/DX2                !
 ! R20   R(10,12)                1.5222         estimate D2E/DX2                !
 ! R21   R(10,29)                1.0812         estimate D2E/DX2                !
 ! R22   R(11,12)                1.5254         estimate D2E/DX2                !
 ! R23   R(11,30)                1.0822         estimate D2E/DX2                !
 ! R24   R(11,31)                1.083          estimate D2E/DX2                !
 ! R25   R(12,32)                1.0825         estimate D2E/DX2                !
 ! R26   R(12,33)                1.0829         estimate D2E/DX2                !
 ! R27   R(13,20)                1.4232         estimate D2E/DX2                !
 ! R28   R(13,21)                1.3908         estimate D2E/DX2                !
 ! R29   R(14,16)                1.5471         estimate D2E/DX2                !
 ! R30   R(14,26)                1.5354         estimate D2E/DX2                !
 ! R31   R(14,34)                1.0971         estimate D2E/DX2                !
 ! R32   R(15,17)                1.5483         estimate D2E/DX2                !
 ! R33   R(15,27)                1.5344         estimate D2E/DX2                !
 ! R34   R(15,35)                1.0933         estimate D2E/DX2                !
 ! R35   R(16,36)                1.087          estimate D2E/DX2                !
 ! R36   R(16,37)                1.0998         estimate D2E/DX2                !
 ! R37   R(17,38)                1.0997         estimate D2E/DX2                !
 ! R38   R(17,39)                1.0881         estimate D2E/DX2                !
 ! R39   R(18,21)                1.4132         estimate D2E/DX2                !
 ! R40   R(18,24)                1.3931         estimate D2E/DX2                !
 ! R41   R(19,23)                1.364          estimate D2E/DX2                !
 ! R42   R(19,40)                1.0816         estimate D2E/DX2                !
 ! R43   R(20,22)                1.4278         estimate D2E/DX2                !
 ! R44   R(20,25)                1.4717         estimate D2E/DX2                !
 ! R45   R(22,24)                1.3997         estimate D2E/DX2                !
 ! R46   R(23,25)                1.4575         estimate D2E/DX2                !
 ! R47   R(23,28)                1.4694         estimate D2E/DX2                !
 ! R48   R(26,42)                1.0935         estimate D2E/DX2                !
 ! R49   R(26,43)                1.0978         estimate D2E/DX2                !
 ! R50   R(26,44)                1.0952         estimate D2E/DX2                !
 ! R51   R(27,45)                1.0951         estimate D2E/DX2                !
 ! R52   R(27,46)                1.098          estimate D2E/DX2                !
 ! R53   R(27,47)                1.0936         estimate D2E/DX2                !
 ! A1    A(28,4,50)            106.8374         estimate D2E/DX2                !
 ! A2    A(10,6,13)            121.986          estimate D2E/DX2                !
 ! A3    A(10,6,19)            118.4634         estimate D2E/DX2                !
 ! A4    A(13,6,19)            119.5268         estimate D2E/DX2                !
 ! A5    A(16,7,17)            112.2937         estimate D2E/DX2                !
 ! A6    A(16,7,18)            121.1314         estimate D2E/DX2                !
 ! A7    A(17,7,18)            122.6329         estimate D2E/DX2                !
 ! A8    A(14,8,15)            113.4431         estimate D2E/DX2                !
 ! A9    A(14,8,41)            109.6256         estimate D2E/DX2                !
 ! A10   A(15,8,41)            109.7353         estimate D2E/DX2                !
 ! A11   A(22,9,48)            115.5244         estimate D2E/DX2                !
 ! A12   A(22,9,49)            119.1116         estimate D2E/DX2                !
 ! A13   A(48,9,49)            125.3639         estimate D2E/DX2                !
 ! A14   A(6,10,11)            118.483          estimate D2E/DX2                !
 ! A15   A(6,10,12)            118.2382         estimate D2E/DX2                !
 ! A16   A(6,10,29)            114.0558         estimate D2E/DX2                !
 ! A17   A(11,10,29)           117.3792         estimate D2E/DX2                !
 ! A18   A(12,10,29)           118.1367         estimate D2E/DX2                !
 ! A19   A(10,11,30)           116.948          estimate D2E/DX2                !
 ! A20   A(10,11,31)           116.6629         estimate D2E/DX2                !
 ! A21   A(12,11,30)           119.2616         estimate D2E/DX2                !
 ! A22   A(12,11,31)           116.7275         estimate D2E/DX2                !
 ! A23   A(30,11,31)           115.6974         estimate D2E/DX2                !
 ! A24   A(10,12,32)           118.2495         estimate D2E/DX2                !
 ! A25   A(10,12,33)           116.845          estimate D2E/DX2                !
 ! A26   A(11,12,32)           116.803          estimate D2E/DX2                !
 ! A27   A(11,12,33)           118.7966         estimate D2E/DX2                !
 ! A28   A(32,12,33)           115.351          estimate D2E/DX2                !
 ! A29   A(6,13,20)            118.2244         estimate D2E/DX2                !
 ! A30   A(6,13,21)            121.8897         estimate D2E/DX2                !
 ! A31   A(20,13,21)           119.8604         estimate D2E/DX2                !
 ! A32   A(8,14,16)            111.7377         estimate D2E/DX2                !
 ! A33   A(8,14,26)            109.1114         estimate D2E/DX2                !
 ! A34   A(8,14,34)            106.8521         estimate D2E/DX2                !
 ! A35   A(16,14,26)           111.321          estimate D2E/DX2                !
 ! A36   A(16,14,34)           107.8403         estimate D2E/DX2                !
 ! A37   A(26,14,34)           109.8641         estimate D2E/DX2                !
 ! A38   A(8,15,17)            111.545          estimate D2E/DX2                !
 ! A39   A(8,15,27)            109.1682         estimate D2E/DX2                !
 ! A40   A(8,15,35)            107.7661         estimate D2E/DX2                !
 ! A41   A(17,15,27)           111.4644         estimate D2E/DX2                !
 ! A42   A(17,15,35)           106.6908         estimate D2E/DX2                !
 ! A43   A(27,15,35)           110.1146         estimate D2E/DX2                !
 ! A44   A(7,16,14)            109.6687         estimate D2E/DX2                !
 ! A45   A(7,16,36)            109.4939         estimate D2E/DX2                !
 ! A46   A(7,16,37)            108.2762         estimate D2E/DX2                !
 ! A47   A(14,16,36)           111.9243         estimate D2E/DX2                !
 ! A48   A(14,16,37)           108.7612         estimate D2E/DX2                !
 ! A49   A(36,16,37)           108.6371         estimate D2E/DX2                !
 ! A50   A(7,17,15)            110.7479         estimate D2E/DX2                !
 ! A51   A(7,17,38)            107.2418         estimate D2E/DX2                !
 ! A52   A(7,17,39)            109.6213         estimate D2E/DX2                !
 ! A53   A(15,17,38)           108.8918         estimate D2E/DX2                !
 ! A54   A(15,17,39)           111.0438         estimate D2E/DX2                !
 ! A55   A(38,17,39)           109.2018         estimate D2E/DX2                !
 ! A56   A(7,18,21)            120.5173         estimate D2E/DX2                !
 ! A57   A(7,18,24)            123.8284         estimate D2E/DX2                !
 ! A58   A(21,18,24)           115.6251         estimate D2E/DX2                !
 ! A59   A(6,19,23)            124.9513         estimate D2E/DX2                !
 ! A60   A(6,19,40)            116.8233         estimate D2E/DX2                !
 ! A61   A(23,19,40)           118.222          estimate D2E/DX2                !
 ! A62   A(13,20,22)           118.5988         estimate D2E/DX2                !
 ! A63   A(13,20,25)           122.3694         estimate D2E/DX2                !
 ! A64   A(22,20,25)           119.0255         estimate D2E/DX2                !
 ! A65   A(1,21,13)            120.2057         estimate D2E/DX2                !
 ! A66   A(1,21,18)            116.9021         estimate D2E/DX2                !
 ! A67   A(13,21,18)           122.8901         estimate D2E/DX2                !
 ! A68   A(9,22,20)            122.2099         estimate D2E/DX2                !
 ! A69   A(9,22,24)            119.4729         estimate D2E/DX2                !
 ! A70   A(20,22,24)           118.3019         estimate D2E/DX2                !
 ! A71   A(19,23,25)           120.3111         estimate D2E/DX2                !
 ! A72   A(19,23,28)           113.8691         estimate D2E/DX2                !
 ! A73   A(25,23,28)           125.8096         estimate D2E/DX2                !
 ! A74   A(2,24,18)            120.0873         estimate D2E/DX2                !
 ! A75   A(2,24,22)            115.3845         estimate D2E/DX2                !
 ! A76   A(18,24,22)           124.528          estimate D2E/DX2                !
 ! A77   A(3,25,20)            122.2685         estimate D2E/DX2                !
 ! A78   A(3,25,23)            123.3551         estimate D2E/DX2                !
 ! A79   A(20,25,23)           114.3739         estimate D2E/DX2                !
 ! A80   A(14,26,42)           109.38           estimate D2E/DX2                !
 ! A81   A(14,26,43)           110.2468         estimate D2E/DX2                !
 ! A82   A(14,26,44)           111.0126         estimate D2E/DX2                !
 ! A83   A(42,26,43)           108.4942         estimate D2E/DX2                !
 ! A84   A(42,26,44)           109.3183         estimate D2E/DX2                !
 ! A85   A(43,26,44)           108.3411         estimate D2E/DX2                !
 ! A86   A(15,27,45)           110.8973         estimate D2E/DX2                !
 ! A87   A(15,27,46)           110.338          estimate D2E/DX2                !
 ! A88   A(15,27,47)           109.468          estimate D2E/DX2                !
 ! A89   A(45,27,46)           108.3682         estimate D2E/DX2                !
 ! A90   A(45,27,47)           109.2311         estimate D2E/DX2                !
 ! A91   A(46,27,47)           108.4901         estimate D2E/DX2                !
 ! A92   A(4,28,5)             121.65           estimate D2E/DX2                !
 ! A93   A(4,28,23)            114.2281         estimate D2E/DX2                !
 ! A94   A(5,28,23)            124.1219         estimate D2E/DX2                !
 ! D1    D(50,4,28,5)            0.003          estimate D2E/DX2                !
 ! D2    D(50,4,28,23)        -179.9583         estimate D2E/DX2                !
 ! D3    D(13,6,10,11)         -68.3643         estimate D2E/DX2                !
 ! D4    D(13,6,10,12)        -138.0771         estimate D2E/DX2                !
 ! D5    D(13,6,10,29)          76.2399         estimate D2E/DX2                !
 ! D6    D(19,6,10,11)         109.8499         estimate D2E/DX2                !
 ! D7    D(19,6,10,12)          40.1372         estimate D2E/DX2                !
 ! D8    D(19,6,10,29)        -105.5458         estimate D2E/DX2                !
 ! D9    D(10,6,13,20)         172.8784         estimate D2E/DX2                !
 ! D10   D(10,6,13,21)          -8.9599         estimate D2E/DX2                !
 ! D11   D(19,6,13,20)          -5.3174         estimate D2E/DX2                !
 ! D12   D(19,6,13,21)         172.8443         estimate D2E/DX2                !
 ! D13   D(10,6,19,23)        -174.5564         estimate D2E/DX2                !
 ! D14   D(10,6,19,40)           4.7598         estimate D2E/DX2                !
 ! D15   D(13,6,19,23)           3.7029         estimate D2E/DX2                !
 ! D16   D(13,6,19,40)        -176.9809         estimate D2E/DX2                !
 ! D17   D(17,7,16,14)         -58.0778         estimate D2E/DX2                !
 ! D18   D(17,7,16,36)         178.7498         estimate D2E/DX2                !
 ! D19   D(17,7,16,37)          60.4603         estimate D2E/DX2                !
 ! D20   D(18,7,16,14)         100.1264         estimate D2E/DX2                !
 ! D21   D(18,7,16,36)         -23.046          estimate D2E/DX2                !
 ! D22   D(18,7,16,37)        -141.3355         estimate D2E/DX2                !
 ! D23   D(16,7,17,15)          57.4717         estimate D2E/DX2                !
 ! D24   D(16,7,17,38)         -61.22           estimate D2E/DX2                !
 ! D25   D(16,7,17,39)        -179.6602         estimate D2E/DX2                !
 ! D26   D(18,7,17,15)        -100.3555         estimate D2E/DX2                !
 ! D27   D(18,7,17,38)         140.9529         estimate D2E/DX2                !
 ! D28   D(18,7,17,39)          22.5126         estimate D2E/DX2                !
 ! D29   D(16,7,18,21)          47.2344         estimate D2E/DX2                !
 ! D30   D(16,7,18,24)        -134.8224         estimate D2E/DX2                !
 ! D31   D(17,7,18,21)        -156.8413         estimate D2E/DX2                !
 ! D32   D(17,7,18,24)          21.102          estimate D2E/DX2                !
 ! D33   D(15,8,14,16)         -52.2833         estimate D2E/DX2                !
 ! D34   D(15,8,14,26)        -175.8162         estimate D2E/DX2                !
 ! D35   D(15,8,14,34)          65.4522         estimate D2E/DX2                !
 ! D36   D(41,8,14,16)          70.7676         estimate D2E/DX2                !
 ! D37   D(41,8,14,26)         -52.7653         estimate D2E/DX2                !
 ! D38   D(41,8,14,34)        -171.4969         estimate D2E/DX2                !
 ! D39   D(14,8,15,17)          50.9921         estimate D2E/DX2                !
 ! D40   D(14,8,15,27)         174.6165         estimate D2E/DX2                !
 ! D41   D(14,8,15,35)         -65.7996         estimate D2E/DX2                !
 ! D42   D(41,8,15,17)         -71.9985         estimate D2E/DX2                !
 ! D43   D(41,8,15,27)          51.6259         estimate D2E/DX2                !
 ! D44   D(41,8,15,35)         171.2098         estimate D2E/DX2                !
 ! D45   D(48,9,22,20)           0.3418         estimate D2E/DX2                !
 ! D46   D(48,9,22,24)         178.8953         estimate D2E/DX2                !
 ! D47   D(49,9,22,20)        -179.793          estimate D2E/DX2                !
 ! D48   D(49,9,22,24)          -1.2395         estimate D2E/DX2                !
 ! D49   D(6,10,11,30)         141.978          estimate D2E/DX2                !
 ! D50   D(6,10,11,31)          -1.1135         estimate D2E/DX2                !
 ! D51   D(29,10,11,30)         -1.464          estimate D2E/DX2                !
 ! D52   D(29,10,11,31)       -144.5555         estimate D2E/DX2                !
 ! D53   D(6,10,12,32)           2.4151         estimate D2E/DX2                !
 ! D54   D(6,10,12,33)        -142.3412         estimate D2E/DX2                !
 ! D55   D(29,10,12,32)        146.6971         estimate D2E/DX2                !
 ! D56   D(29,10,12,33)          1.9408         estimate D2E/DX2                !
 ! D57   D(30,11,12,32)       -145.3722         estimate D2E/DX2                !
 ! D58   D(30,11,12,33)          0.2256         estimate D2E/DX2                !
 ! D59   D(31,11,12,32)          1.6241         estimate D2E/DX2                !
 ! D60   D(31,11,12,33)        147.222          estimate D2E/DX2                !
 ! D61   D(6,13,20,22)        -178.2773         estimate D2E/DX2                !
 ! D62   D(6,13,20,25)           2.6472         estimate D2E/DX2                !
 ! D63   D(21,13,20,22)          3.5225         estimate D2E/DX2                !
 ! D64   D(21,13,20,25)       -175.5531         estimate D2E/DX2                !
 ! D65   D(6,13,21,1)           -3.5654         estimate D2E/DX2                !
 ! D66   D(6,13,21,18)         176.9658         estimate D2E/DX2                !
 ! D67   D(20,13,21,1)         174.567          estimate D2E/DX2                !
 ! D68   D(20,13,21,18)         -4.9019         estimate D2E/DX2                !
 ! D69   D(8,14,16,7)           54.5448         estimate D2E/DX2                !
 ! D70   D(8,14,16,36)         176.272          estimate D2E/DX2                !
 ! D71   D(8,14,16,37)         -63.6928         estimate D2E/DX2                !
 ! D72   D(26,14,16,7)         176.82           estimate D2E/DX2                !
 ! D73   D(26,14,16,36)        -61.4528         estimate D2E/DX2                !
 ! D74   D(26,14,16,37)         58.5824         estimate D2E/DX2                !
 ! D75   D(34,14,16,7)         -62.5962         estimate D2E/DX2                !
 ! D76   D(34,14,16,36)         59.131          estimate D2E/DX2                !
 ! D77   D(34,14,16,37)        179.1662         estimate D2E/DX2                !
 ! D78   D(8,14,26,42)         -53.3458         estimate D2E/DX2                !
 ! D79   D(8,14,26,43)          65.8737         estimate D2E/DX2                !
 ! D80   D(8,14,26,44)        -174.062          estimate D2E/DX2                !
 ! D81   D(16,14,26,42)       -177.1256         estimate D2E/DX2                !
 ! D82   D(16,14,26,43)        -57.9061         estimate D2E/DX2                !
 ! D83   D(16,14,26,44)         62.1583         estimate D2E/DX2                !
 ! D84   D(34,14,26,42)         63.4883         estimate D2E/DX2                !
 ! D85   D(34,14,26,43)       -177.2921         estimate D2E/DX2                !
 ! D86   D(34,14,26,44)        -57.2278         estimate D2E/DX2                !
 ! D87   D(8,15,17,7)          -52.6549         estimate D2E/DX2                !
 ! D88   D(8,15,17,38)          65.0324         estimate D2E/DX2                !
 ! D89   D(8,15,17,39)        -174.6941         estimate D2E/DX2                !
 ! D90   D(27,15,17,7)        -174.9685         estimate D2E/DX2                !
 ! D91   D(27,15,17,38)        -57.2812         estimate D2E/DX2                !
 ! D92   D(27,15,17,39)         62.9923         estimate D2E/DX2                !
 ! D93   D(35,15,17,7)          64.7879         estimate D2E/DX2                !
 ! D94   D(35,15,17,38)       -177.5247         estimate D2E/DX2                !
 ! D95   D(35,15,17,39)        -57.2512         estimate D2E/DX2                !
 ! D96   D(8,15,27,45)         173.9603         estimate D2E/DX2                !
 ! D97   D(8,15,27,46)         -65.9563         estimate D2E/DX2                !
 ! D98   D(8,15,27,47)          53.3687         estimate D2E/DX2                !
 ! D99   D(17,15,27,45)        -62.3676         estimate D2E/DX2                !
 ! D100  D(17,15,27,46)         57.7158         estimate D2E/DX2                !
 ! D101  D(17,15,27,47)        177.0407         estimate D2E/DX2                !
 ! D102  D(35,15,27,45)         55.8393         estimate D2E/DX2                !
 ! D103  D(35,15,27,46)        175.9227         estimate D2E/DX2                !
 ! D104  D(35,15,27,47)        -64.7523         estimate D2E/DX2                !
 ! D105  D(7,18,21,1)            0.7935         estimate D2E/DX2                !
 ! D106  D(7,18,21,13)        -179.7212         estimate D2E/DX2                !
 ! D107  D(24,18,21,1)        -177.3116         estimate D2E/DX2                !
 ! D108  D(24,18,21,13)          2.1737         estimate D2E/DX2                !
 ! D109  D(7,18,24,2)            4.0611         estimate D2E/DX2                !
 ! D110  D(7,18,24,22)        -176.0986         estimate D2E/DX2                !
 ! D111  D(21,18,24,2)        -177.904          estimate D2E/DX2                !
 ! D112  D(21,18,24,22)          1.9363         estimate D2E/DX2                !
 ! D113  D(6,19,23,25)           0.9179         estimate D2E/DX2                !
 ! D114  D(6,19,23,28)         179.8203         estimate D2E/DX2                !
 ! D115  D(40,19,23,25)       -178.3896         estimate D2E/DX2                !
 ! D116  D(40,19,23,28)          0.5128         estimate D2E/DX2                !
 ! D117  D(13,20,22,9)         178.8654         estimate D2E/DX2                !
 ! D118  D(13,20,22,24)          0.2957         estimate D2E/DX2                !
 ! D119  D(25,20,22,9)          -2.0276         estimate D2E/DX2                !
 ! D120  D(25,20,22,24)        179.4027         estimate D2E/DX2                !
 ! D121  D(13,20,25,3)        -178.9239         estimate D2E/DX2                !
 ! D122  D(13,20,25,23)          1.632          estimate D2E/DX2                !
 ! D123  D(22,20,25,3)           2.0044         estimate D2E/DX2                !
 ! D124  D(22,20,25,23)       -177.4397         estimate D2E/DX2                !
 ! D125  D(9,22,24,2)           -1.895          estimate D2E/DX2                !
 ! D126  D(9,22,24,18)         178.258          estimate D2E/DX2                !
 ! D127  D(20,22,24,2)         176.715          estimate D2E/DX2                !
 ! D128  D(20,22,24,18)         -3.132          estimate D2E/DX2                !
 ! D129  D(19,23,25,3)         177.122          estimate D2E/DX2                !
 ! D130  D(19,23,25,20)         -3.4407         estimate D2E/DX2                !
 ! D131  D(28,23,25,3)          -1.6402         estimate D2E/DX2                !
 ! D132  D(28,23,25,20)        177.797          estimate D2E/DX2                !
 ! D133  D(19,23,28,4)         179.9175         estimate D2E/DX2                !
 ! D134  D(19,23,28,5)          -0.0428         estimate D2E/DX2                !
 ! D135  D(25,23,28,4)          -1.251          estimate D2E/DX2                !
 ! D136  D(25,23,28,5)         178.7887         estimate D2E/DX2                !
 --------------------------------------------------------------------------------
 Trust Radius=3.00D-01 FncErr=1.00D-07 GrdErr=1.00D-06
 Number of steps in this run=    293 maximum allowed number of steps=    300.
 GradGradGradGradGradGradGradGradGradGradGradGradGradGradGradGradGradGrad

                          Input orientation:                          
 ---------------------------------------------------------------------
 Center     Atomic      Atomic             Coordinates (Angstroms)
 Number     Number       Type             X           Y           Z
 ---------------------------------------------------------------------
      1          9           0        0.532865    1.972518   -1.046234
      2          9           0        1.919943   -2.488909    0.076052
      3          8           0       -3.113614   -2.619169    0.530979
      4          8           0       -5.673055   -1.838199    0.413798
      5          8           0       -6.095178    0.361035   -0.013384
      6          7           0       -2.147678    1.301763   -0.395533
      7          7           0        2.585870    0.164792   -0.783634
      8          7           0        5.089522    0.131155    0.668754
      9          7           0       -0.611351   -3.241958    0.440260
     10          6           0       -1.885498    2.734939   -0.577185
     11          6           0       -1.221475    3.494113    0.547552
     12          6           0       -2.698399    3.725626    0.244358
     13          6           0       -1.102360    0.351493   -0.328980
     14          6           0        4.032212    1.131379    0.983370
     15          6           0        4.560645   -1.114016    0.044833
     16          6           0        3.144229    1.432829   -0.247191
     17          6           0        3.645486   -0.799929   -1.163851
     18          6           0        1.286086   -0.226930   -0.492773
     19          6           0       -3.433173    0.892681   -0.252707
     20          6           0       -1.434401   -0.992287    0.001855
     21          6           0        0.216665    0.689089   -0.612728
     22          6           0       -0.381041   -1.950299    0.107864
     23          6           0       -3.820058   -0.384869    0.027760
     24          6           0        0.932299   -1.519718   -0.113082
     25          6           0       -2.822660   -1.430548    0.217946
     26          6           0        4.692709    2.408672    1.521514
     27          6           0        5.736171   -2.013381   -0.359717
     28          6           0       -5.275699   -0.555649    0.133638
     29          1           0       -1.618015    3.009380   -1.588218
     30          1           0       -0.499411    4.250705    0.269333
     31          1           0       -0.990577    2.931583    1.443670
     32          1           0       -3.410652    3.335091    0.959889
     33          1           0       -2.992059    4.644300   -0.247970
     34          1           0        3.394263    0.687031    1.757452
     35          1           0        3.937781   -1.620513    0.787051
     36          1           0        2.331770    2.112955   -0.004576
     37          1           0        3.766683    1.893305   -1.028290
     38          1           0        4.247977   -0.327891   -1.953452
     39          1           0        3.190141   -1.707274   -1.555333
     40          1           0       -4.200414    1.647310   -0.361154
     41          1           0        5.796271    0.557124    0.050785
     42          1           0        5.351101    2.152707    2.356212
     43          1           0        5.294626    2.884811    0.736542
     44          1           0        3.939237    3.127106    1.861508
     45          1           0        5.379244   -2.982536   -0.723869
     46          1           0        6.322877   -1.538821   -1.157274
     47          1           0        6.388479   -2.171043    0.503801
     48          1           0       -1.595480   -3.487971    0.605782
     49          1           0        0.170314   -3.880176    0.505007
     50          1           0       -6.669609   -1.828442    0.459822
 ---------------------------------------------------------------------
                    Distance matrix (angstroms):
                    1          2          3          4          5
     1  F    0.000000
     2  F    4.804981   0.000000
     3  O    6.071902   5.055751   0.000000
     4  O    7.427429   7.628310   2.678504   0.000000
     5  O    6.898885   8.507194   4.250608   2.279759   0.000000
     6  N    2.838773   5.580065   4.143086   4.789850   4.075998
     7  N    2.748029   2.867865   6.477867   8.582287   8.717361
     8  N    5.205279   4.154788   8.653017  10.944241  11.207840
     9  N    5.541629   2.665929   2.580197   5.252817   6.577211
    10  C    2.578715   6.495898   5.603817   6.020069   4.865665
    11  C    2.816578   6.774022   6.399428   6.947518   5.820980
    12  C    3.896163   7.744537   6.364824   6.311374   4.788007
    13  C    2.411667   4.167283   3.689106   5.122277   5.002792
    14  C    4.131856   4.288519   8.082951  10.165383  10.205439
    15  C    5.190388   2.977350   7.835565  10.265924  10.757589
    16  C    2.783695   4.121091   7.495654   9.427674   9.304303
    17  C    4.169977   2.714316   7.201911   9.508006   9.876839
    18  C    2.389818   2.416999   5.111579   7.200535   7.420147
    19  C    4.186310   6.340275   3.612391   3.594302   2.725104
    20  C    3.709271   3.673827   2.397180   4.341826   4.853304
    21  C    1.391079   3.670864   4.831500   6.490743   6.348716
    22  C    4.189947   2.363396   2.844885   5.302035   6.165089
    23  C    5.065439   6.113667   2.396745   2.386376   2.394627
    24  C    3.636761   1.396619   4.241818   6.633983   7.275480
    25  C    4.943537   4.861332   1.263117   2.886051   3.738002
    26  C    4.907939   5.810670   9.338042  11.256643  11.087256
    27  C    6.590379   3.870351   8.915100  11.436759  12.072225
    28  C    6.443845   7.451045   3.015063   1.371611   1.238334
    29  H    2.448492   6.746712   6.197449   6.629513   5.434963
    30  H    2.826030   7.163311   7.355113   7.991384   6.820709
    31  H    3.072508   6.302637   6.012582   6.762918   5.898108
    32  H    4.629521   7.944519   5.977073   5.672708   4.122978
    33  H    4.494523   8.666916   7.306129   7.046167   5.294406
    34  H    4.207224   3.884240   7.401869   9.507810   9.658759
    35  H    5.278661   2.308961   7.126364   9.620544  10.258045
    36  H    2.083467   4.620958   7.234088   8.936659   8.607134
    37  H    3.234838   4.881989   8.374499  10.252434  10.031659
    38  H    4.462845   3.769433   8.100332  10.310760  10.546058
    39  H    4.567403   2.210379   6.702356   9.080246   9.637046
    40  H    4.793644   7.399880   4.492202   3.862382   2.316372
    41  H    5.559697   4.929997   9.471297  11.722405  11.893239
    42  H    5.901229   6.206172   9.887046  11.884120  11.825497
    43  H    5.165746   6.379780  10.051594  11.945753  11.690144
    44  H    4.625085   6.229368   9.194166  10.915415  10.576193
    45  H    6.938578   3.584732   8.592748  11.169472  11.972745
    46  H    6.772449   4.670074   9.647005  12.102077  12.614517
    47  H    7.338932   4.500202   9.512693  12.066461  12.748356
    48  H    6.089002   3.692822   1.750755   4.402865   5.953612
    49  H    6.065626   2.276143   3.517811   6.190553   7.583732
    50  H    8.281976   8.623451   3.643544   0.997664   2.312510
                    6          7          8          9         10
     6  N    0.000000
     7  N    4.883626   0.000000
     8  N    7.408110   2.894622   0.000000
     9  N    4.868701   4.829709   6.627975   0.000000
    10  C    1.468240   5.161532   7.548706   6.195316   0.000000
    11  C    2.560012   5.229944   7.152123   6.764497   1.510730
    12  C    2.566684   6.454441   8.587901   7.276082   1.522236
    13  C    1.414260   3.720834   6.275621   3.707521   2.521056
    14  C    6.334149   2.479617   1.489072   6.401853   6.326613
    15  C    7.143634   2.494282   1.489778   5.606607   7.533533
    16  C    5.295608   1.485750   2.513459   6.035777   5.206010
    17  C    6.210328   1.482578   2.512090   5.163075   6.590239
    18  C    3.759933   1.388339   3.992931   3.682555   4.340362
    19  C    1.356556   6.086098   8.606122   5.053526   2.427859
    20  C    2.435025   4.256572   6.653454   2.435288   3.798814
    21  C    2.452073   2.432535   5.069341   4.153014   2.933574
    22  C    3.735013   3.751125   5.879975   1.353482   4.968313
    23  C    2.412625   6.480463   8.947501   4.316123   3.720441
    24  C    4.186501   2.453877   4.540832   2.378057   5.124205
    25  C    2.880535   5.727169   8.077423   2.867144   4.343016
    26  C    7.189660   3.845449   2.464091   7.825074   6.912582
    27  C    8.552575   3.853380   2.464740   6.514630   8.982409
    28  C    3.676210   7.947622  10.401724   5.391328   4.777730
    29  H    2.149185   5.139230   7.639971   6.648859   1.081227
    30  H    3.443122   5.227082   6.954596   7.495448   2.221571
    31  H    2.716222   5.040535   6.738731   6.266040   2.218875
    32  H    2.750763   7.003495   9.088615   7.166845   2.246970
    33  H    3.450697   7.173996   9.301656   8.266468   2.231260
    34  H    5.977152   2.717232   2.090015   5.763410   6.125384
    35  H    6.853540   2.735330   2.099724   4.841895   7.398762
    36  H    4.569063   2.113489   3.462095   6.126576   4.301174
    37  H    5.977455   2.107589   2.781193   6.906138   5.732276
    38  H    6.781393   2.091366   2.791932   6.150993   6.992464
    39  H    6.236325   2.113124   3.454567   4.559494   6.815581
    40  H    2.081901   6.959167   9.469020   6.117890   2.566796
    41  H    7.991246   3.340188   1.030936   7.459379   8.009170
    42  H    8.032926   4.632164   2.646245   8.265840   7.830209
    43  H    7.692563   4.128777   2.762116   8.515025   7.300858
    44  H    6.743637   4.195674   3.423673   7.955676   6.326812
    45  H    8.667040   4.208585   3.423216   6.108169   9.245946
    46  H    8.966575   4.123970   2.764844   7.316851   9.272483
    47  H    9.259328   4.644723   2.648512   7.081562   9.679664
    48  H    4.924338   5.723359   7.602058   1.027828   6.340988
    49  H    5.747743   4.884391   6.349504   1.011195   7.011223
    50  H    5.565759   9.548982  11.923122   6.221005   6.692350
                   11         12         13         14         15
    11  C    0.000000
    12  C    1.525395   0.000000
    13  C    3.264745   3.776351   0.000000
    14  C    5.776995   7.251026   5.356707   0.000000
    15  C    7.410836   8.726721   5.861491   2.490360   0.000000
    16  C    4.892840   6.295621   4.382864   1.547148   2.928811
    17  C    6.712303   7.918875   4.956291   2.913772   1.548252
    18  C    4.606115   5.660581   2.462940   3.400766   3.434920
    19  C    3.507060   2.968593   2.394032   7.570788   8.247211
    20  C    4.524479   4.890317   1.423182   5.946191   5.996436
    21  C    3.358967   4.295667   1.390795   4.159513   4.749077
    22  C    5.526416   6.132284   2.451404   5.453444   5.012345
    23  C    4.697799   4.266287   2.838199   8.054213   8.412380
    24  C    5.496697   6.389316   2.772703   4.223740   3.654371
    25  C    5.188903   5.157739   2.536578   7.357895   7.392114
    26  C    6.091335   7.615377   6.421771   1.535361   3.821957
    27  C    8.919892  10.219740   7.235957   3.820586   1.534399
    28  C    5.745314   4.998405   4.295775   9.497648   9.852580
    29  H    2.225696   2.244677   2.985958   6.485755   7.605596
    30  H    1.082226   2.260947   3.990662   5.547581   7.377994
    31  H    1.082950   2.232825   3.132355   5.355466   7.009970
    32  H    2.233340   1.082500   3.986383   7.762288   9.174609
    33  H    2.256270   1.082860   4.691025   7.949666   9.501962
    34  H    5.536118   6.974456   4.968441   1.097099   2.745411
    35  H    7.268747   8.539005   5.526061   2.760501   1.093337
    36  H    3.852012   5.288221   3.873143   2.197961   3.922202
    37  H    5.470611   6.839175   5.154978   2.167444   3.290281
    38  H    7.125843   8.337476   5.632635   3.286479   2.169999
    39  H    7.137150   8.211589   4.916099   3.900262   2.188782
    40  H    3.620843   2.634785   3.358291   8.357635   9.194885
    41  H    7.623742   9.068423   6.912135   2.076388   2.078345
    42  H    6.947617   8.469265   7.218157   2.160388   4.079065
    43  H    6.547254   8.052184   6.962361   2.174658   4.124052
    44  H    5.337989   6.857960   6.157919   2.182360   4.655488
    45  H    9.334505  10.544440   7.299512   4.653328   2.179994
    46  H    9.227898  10.538614   7.706718   4.118188   2.175082
    47  H    9.487218  10.835560   7.947917   4.085091   2.160772
    48  H    6.992336   7.306370   3.982265   7.290534   6.621797
    49  H    7.504600   8.132999   4.496916   6.344980   5.209454
    50  H    7.617050   6.831150   6.030637  11.115917  11.260605
                   16         17         18         19         20
    16  C    0.000000
    17  C    2.465103   0.000000
    18  C    2.503559   2.519016   0.000000
    19  C    6.599546   7.335020   4.856188   0.000000
    20  C    5.187202   5.215470   2.869055   2.759166   0.000000
    21  C    3.042597   3.778588   1.413202   3.673198   2.435314
    22  C    4.898892   4.376475   2.471857   4.186652   1.427793
    23  C    7.202841   7.571430   5.135037   1.363993   2.461907
    24  C    3.691633   2.997265   1.393065   4.989640   2.427481
    25  C    6.634685   6.644092   4.340001   2.447781   1.471744
    26  C    2.545266   4.313117   4.754874   8.454351   7.170590
    27  C    4.313605   2.547560   4.797121   9.619434   7.251929
    28  C    8.659923   9.018353   6.599808   2.375252   3.868280
    29  H    5.192575   6.511172   4.484139   3.091731   4.309917
    30  H    4.635012   6.689028   4.880371   4.489522   5.332421
    31  H    4.711889   6.497417   4.348472   3.605703   4.203875
    32  H    6.931241   8.449719   6.071043   2.726951   4.852793
    33  H    6.925863   8.633393   6.487784   3.777466   5.853189
    34  H    2.153445   3.287579   3.216092   7.120177   5.405389
    35  H    3.319982   2.136542   3.257531   7.856730   5.465486
    36  H    1.086979   3.399215   2.608995   5.897898   4.881251
    37  H    1.099819   2.699366   3.306892   7.310315   6.036482
    38  H    2.688814   1.099675   3.304024   7.961306   6.045996
    39  H    3.401998   1.088059   2.635503   7.233594   4.931778
    40  H    7.348658   8.257811   5.799291   1.081612   3.840583
    41  H    2.808732   2.818299   4.609985   9.240527   7.394977
    42  H    3.488010   4.900819   5.504883   9.249735   7.840728
    43  H    2.774922   4.461890   5.221354   9.006757   7.800734
    44  H    2.819437   4.965953   4.881742   7.988428   7.021659
    45  H    4.971716   2.821927   4.939708   9.638361   7.135371
    46  H    4.445532   2.777486   5.247083  10.095096   7.862420
    47  H    4.906836   3.490706   5.550419  10.316179   7.927097
    48  H    6.885251   6.150195   4.488277   4.827446   2.572764
    49  H    6.134981   4.934555   3.948002   6.028218   3.341882
    50  H   10.365673  10.492633   8.171007   4.287975   5.321305
                   21         22         23         24         25
    21  C    0.000000
    22  C    2.800513   0.000000
    23  C    4.225961   3.779395   0.000000
    24  C    2.374996   1.399671   4.888007   0.000000
    25  C    3.797417   2.498752   1.457538   3.770577   0.000000
    26  C    5.248516   6.836810   9.083082   5.678454   8.539302
    27  C    6.150797   6.135381   9.701737   4.835465   8.598080
    28  C    5.680889   5.089537   1.469444   6.287252   2.605754
    29  H    3.114704   5.385649   4.356754   5.403041   4.942303
    30  H    3.738436   6.204235   5.707329   5.957669   6.138140
    31  H    3.273375   5.097910   4.583625   5.092643   4.887445
    32  H    4.757297   6.151409   3.856758   6.601641   4.858758
    33  H    5.106139   7.101603   5.104327   7.308481   6.095043
    34  H    3.964201   4.891786   7.495814   3.798672   6.745691
    35  H    4.597863   4.384322   7.892237   3.139000   6.787012
    36  H    2.621243   4.886923   6.639666   3.894433   6.258920
    37  H    3.771665   5.767820   7.991493   4.529908   7.484687
    38  H    4.368440   5.320624   8.307926   3.975064   7.478284
    39  H    3.933525   3.946977   7.307382   2.685724   6.274940
    40  H    4.526816   5.267863   2.103729   6.036253   3.421516
    41  H    5.620469   6.667054   9.662384   5.291347   8.846737
    42  H    6.108946   7.399134   9.796486   6.253793   9.177269
    43  H    5.694507   7.482427   9.709307   6.257127   9.207692
    44  H    5.091494   6.893483   8.712248   5.876534   8.318459
    45  H    6.336040   5.910852   9.588534   4.721040   8.400411
    46  H    6.522725   6.834647  10.276918   5.490814   9.248989
    47  H    6.893350   6.784681  10.374549   5.529437   9.245276
    48  H    4.713435   2.021687   3.861619   3.283360   2.426804
    49  H    4.704218   2.046006   5.326162   2.556251   3.878270
    50  H    7.410067   6.299588   3.223433   7.629714   3.875028
                   26         27         28         29         30
    26  C    0.000000
    27  C    4.917560   0.000000
    28  C   10.492023  11.118888   0.000000
    29  H    7.060915   8.990072   5.390072   0.000000
    30  H    5.649704   8.860980   6.777343   2.498531   0.000000
    31  H    5.707822   8.541312   5.677961   3.097108   1.833138
    32  H    8.175459  10.677635   4.393057   3.132489   3.128984
    33  H    8.196631  10.978124   5.692109   2.521354   2.576007
    34  H    2.169257   4.154415   8.907821   6.458308   5.484065
    35  H    4.164575   2.168785   9.297801   7.612140   7.377527
    36  H    2.826735   5.361224   8.063134   4.348828   3.558172
    37  H    2.761273   4.425841   9.439922   5.527578   5.043879
    38  H    4.445442   2.756010   9.752344   6.758745   6.960029
    39  H    5.354037   2.829394   8.709151   6.735449   7.241527
    40  H    9.122047  10.589447   2.500817   3.166971   4.568654
    41  H    2.609430   2.603770  11.128057   7.979444   7.302460
    42  H    1.093489   4.988070  11.189455   8.053632   6.556306
    43  H    1.097813   5.038753  11.132476   7.294151   5.971165
    44  H    1.095200   5.881107  10.072898   6.541981   4.847586
    45  H    5.880323   1.095110  10.961428   9.252664   9.373623
    46  H    5.041434   1.097966  11.711535   9.161311   9.060763
    47  H    4.988503   1.093630  11.781323   9.763056   9.420024
    48  H    8.668926   7.540538   4.729212   6.857821   7.823150
    49  H    7.812487   5.933922   6.391358   7.419278   8.161820
    50  H   12.173027  12.434196   1.915563   7.288182   8.663929
                   31         32         33         34         35
    31  H    0.000000
    32  H    2.500725   0.000000
    33  H    3.130651   1.829801   0.000000
    34  H    4.935919   7.345420   7.776040   0.000000
    35  H    6.741027   8.864951   9.399034   2.561611   0.000000
    36  H    3.715583   5.949724   5.900009   2.503376   4.140619
    37  H    5.460781   7.585891   7.338765   3.058456   3.958744
    38  H    7.043228   8.975499   8.947037   3.940774   3.045891
    39  H    6.927584   8.678839   8.959424   4.092543   2.460337
    40  H    3.899974   2.284181   3.233401   7.942905   8.844618
    41  H    7.323899   9.659762   9.696855   2.949446   2.956041
    42  H    6.454166   8.950758   9.088351   2.517128   4.323995
    43  H    6.325029   8.719776   8.528436   3.079590   4.705478
    44  H    4.951352   7.407904   7.402340   2.502357   4.867684
    45  H    8.958217  10.954895  11.334629   4.854155   2.493151
    46  H    8.957457  11.089589  11.217212   4.693274   3.078272
    47  H    9.020566  11.249378  11.619318   4.324992   2.527694
    48  H    6.502203   7.069259   8.295370   6.607157   5.842708
    49  H    6.973437   8.067857   9.123282   5.729035   4.402208
    50  H    7.475105   6.126413   7.478083  10.454328  10.614473
                   36         37         38         39         40
    36  H    0.000000
    37  H    1.776292   0.000000
    38  H    3.664382   2.453830   0.000000
    39  H    4.211389   3.684338   1.783315   0.000000
    40  H    6.558460   7.998764   8.821119   8.203633   0.000000
    41  H    3.798216   2.658761   2.682803   3.807759  10.064388
    42  H    3.832918   3.746001   5.093472   5.905031   9.943387
    43  H    3.150164   2.536203   4.318911   5.546962   9.638056
    44  H    2.663592   3.146899   5.156185   5.967175   8.566443
    45  H    5.980678   5.144594   3.136683   2.666420  10.645980
    46  H    5.531104   4.281385   2.530901   3.162414  11.023833
    47  H    5.921822   5.073464   3.743935   3.832033  11.289492
    48  H    6.867765   7.770529   7.119113   5.544679   5.838815
    49  H    6.391337   6.972657   5.940546   4.252747   7.099761
    50  H    9.837434  11.179538  11.281366  10.064303   4.341863
                   41         42         43         44         45
    41  H    0.000000
    42  H    2.838847   0.000000
    43  H    2.477910   1.778341   0.000000
    44  H    3.651315   1.785370   1.778014   0.000000
    45  H    3.647354   5.988189   6.046960   6.788632   0.000000
    46  H    2.475824   5.188093   4.920606   6.046955   1.778369
    47  H    2.828220   4.816886   5.178064   5.992707   1.784447
    48  H    8.444454   9.117908   9.386320   8.716030   7.118301
    49  H    7.179648   8.164753   8.489831   8.071362   5.426679
    50  H   12.698677  12.804035  12.862125  11.792786  12.161740
                   46         47         48         49         50
    46  H    0.000000
    47  H    1.778533   0.000000
    48  H    8.343137   8.092484   0.000000
    49  H    6.789636   6.448776   1.811632   0.000000
    50  H   13.095937  13.062656   5.340611   7.141162   0.000000
 Stoichiometry    C19H22F2N4O3
 Framework group  C1[X(C19H22F2N4O3)]
 Deg. of freedom   144
 Full point group                 C1      NOp   1
 Largest Abelian subgroup         C1      NOp   1
 Largest concise Abelian subgroup C1      NOp   1
                         Standard orientation:                         
 ---------------------------------------------------------------------
 Center     Atomic      Atomic             Coordinates (Angstroms)
 Number     Number       Type             X           Y           Z
 ---------------------------------------------------------------------
      1          9           0        0.532865    1.972518   -1.046234
      2          9           0        1.919943   -2.488909    0.076052
      3          8           0       -3.113614   -2.619169    0.530979
      4          8           0       -5.673055   -1.838199    0.413798
      5          8           0       -6.095178    0.361035   -0.013384
      6          7           0       -2.147678    1.301763   -0.395533
      7          7           0        2.585870    0.164792   -0.783634
      8          7           0        5.089522    0.131155    0.668754
      9          7           0       -0.611351   -3.241958    0.440260
     10          6           0       -1.885498    2.734939   -0.577185
     11          6           0       -1.221475    3.494113    0.547552
     12          6           0       -2.698399    3.725626    0.244358
     13          6           0       -1.102360    0.351493   -0.328980
     14          6           0        4.032212    1.131379    0.983370
     15          6           0        4.560645   -1.114016    0.044833
     16          6           0        3.144229    1.432829   -0.247191
     17          6           0        3.645486   -0.799929   -1.163851
     18          6           0        1.286086   -0.226930   -0.492773
     19          6           0       -3.433173    0.892681   -0.252707
     20          6           0       -1.434401   -0.992287    0.001855
     21          6           0        0.216665    0.689089   -0.612728
     22          6           0       -0.381041   -1.950299    0.107864
     23          6           0       -3.820058   -0.384869    0.027760
     24          6           0        0.932299   -1.519718   -0.113082
     25          6           0       -2.822660   -1.430548    0.217946
     26          6           0        4.692709    2.408672    1.521514
     27          6           0        5.736171   -2.013381   -0.359717
     28          6           0       -5.275699   -0.555649    0.133638
     29          1           0       -1.618015    3.009380   -1.588218
     30          1           0       -0.499411    4.250705    0.269333
     31          1           0       -0.990577    2.931583    1.443670
     32          1           0       -3.410652    3.335091    0.959889
     33          1           0       -2.992059    4.644300   -0.247970
     34          1           0        3.394263    0.687031    1.757452
     35          1           0        3.937781   -1.620513    0.787051
     36          1           0        2.331770    2.112955   -0.004576
     37          1           0        3.766683    1.893305   -1.028290
     38          1           0        4.247977   -0.327891   -1.953452
     39          1           0        3.190141   -1.707274   -1.555333
     40          1           0       -4.200414    1.647310   -0.361154
     41          1           0        5.796271    0.557124    0.050785
     42          1           0        5.351101    2.152707    2.356212
     43          1           0        5.294626    2.884811    0.736542
     44          1           0        3.939237    3.127106    1.861508
     45          1           0        5.379244   -2.982536   -0.723869
     46          1           0        6.322877   -1.538821   -1.157274
     47          1           0        6.388479   -2.171043    0.503801
     48          1           0       -1.595480   -3.487971    0.605782
     49          1           0        0.170314   -3.880176    0.505007
     50          1           0       -6.669609   -1.828442    0.459822
 ---------------------------------------------------------------------
 Rotational constants (GHZ):      0.3250095      0.1064616      0.0843141
 Standard basis: LANL2DZ (5D, 7F)
 There are   296 symmetry adapted cartesian basis functions of A   symmetry.
 There are   296 symmetry adapted basis functions of A   symmetry.
   296 basis functions,   788 primitive gaussians,   296 cartesian basis functions
   103 alpha electrons      103 beta electrons
       nuclear repulsion energy      2766.2747014647 Hartrees.
 NAtoms=   50 NActive=   50 NUniq=   50 SFac= 1.00D+00 NAtFMM=   60 NAOKFM=F Big=F
 Integral buffers will be    131072 words long.
 Raffenetti 2 integral format.
 Two-electron integral symmetry is turned on.
 One-electron integrals computed using PRISM.
 PrsmSu:  requested number of processors reduced to:   8 ShMem   1 Linda.
   1 Symmetry operations used in ECPInt.
 ECPInt:  NShTT=   17020 NPrTT=  130136 LenC2=   14980 LenP2D=   61859.
 LDataN:  DoStor=T MaxTD1= 2 Len=   12
 Number of processors reduced to   7 by ecpmxn.
 NBasis=   296 RedAO= T EigKep=  6.68D-05  NBF=   296
 NBsUse=   296 1.00D-06 EigRej= -1.00D+00 NBFU=   296
 ExpMin= 1.15D-01 ExpMax= 1.00D+04 ExpMxC= 3.50D+02 IAcc=3 IRadAn=         5 AccDes= 0.00D+00
 Harris functional with IExCor= 1009 and IRadAn=       5 diagonalized for initial guess.
 HarFok:  IExCor= 1009 AccDes= 0.00D+00 IRadAn=         5 IDoV= 1 UseB2=F ITyADJ=14
 ICtDFT=  3500011 ScaDFX=  1.000000  1.000000  1.000000  1.000000
 FoFCou: FMM=F IPFlag=           0 FMFlag=      100000 FMFlg1=           0
         NFxFlg=           0 DoJE=T BraDBF=F KetDBF=T FulRan=T
         wScrn=  0.000000 ICntrl=     500 IOpCl=  0 I1Cent=   200000004 NGrid=           0
         NMat0=    1 NMatS0=      1 NMatT0=    0 NMatD0=    1 NMtDS0=    0 NMtDT0=    0
 Petite list used in FoFCou.
 Requested convergence on RMS density matrix=1.00D-08 within 128 cycles.
 Requested convergence on MAX density matrix=1.00D-06.
 Requested convergence on             energy=1.00D-06.
 No special actions if energy rises.
 Integral accuracy reduced to 1.0D-05 until final iterations.
 Initial convergence to 1.0D-05 achieved.  Increase integral accuracy.
 SCF Done:  E(RM06) =  -1380.59857458     A.U. after   18 cycles
            NFock= 18  Conv=0.48D-08     -V/T= 2.0048

 **********************************************************************

            Population analysis using the SCF density.

 **********************************************************************

 Orbital symmetries:
       Occupied  (A) (A) (A) (A) (A) (A) (A) (A) (A) (A) (A) (A)
                 (A) (A) (A) (A) (A) (A) (A) (A) (A) (A) (A) (A)
                 (A) (A) (A) (A) (A) (A) (A) (A) (A) (A) (A) (A)
                 (A) (A) (A) (A) (A) (A) (A) (A) (A) (A) (A) (A)
                 (A) (A) (A) (A) (A) (A) (A) (A) (A) (A) (A) (A)
                 (A) (A) (A) (A) (A) (A) (A) (A) (A) (A) (A) (A)
                 (A) (A) (A) (A) (A) (A) (A) (A) (A) (A) (A) (A)
                 (A) (A) (A) (A) (A) (A) (A) (A) (A) (A) (A) (A)
                 (A) (A) (A) (A) (A) (A) (A)
       Virtual   (A) (A) (A) (A) (A) (A) (A) (A) (A) (A) (A) (A)
                 (A) (A) (A) (A) (A) (A) (A) (A) (A) (A) (A) (A)
                 (A) (A) (A) (A) (A) (A) (A) (A) (A) (A) (A) (A)
                 (A) (A) (A) (A) (A) (A) (A) (A) (A) (A) (A) (A)
                 (A) (A) (A) (A) (A) (A) (A) (A) (A) (A) (A) (A)
                 (A) (A) (A) (A) (A) (A) (A) (A) (A) (A) (A) (A)
                 (A) (A) (A) (A) (A) (A) (A) (A) (A) (A) (A) (A)
                 (A) (A) (A) (A) (A) (A) (A) (A) (A) (A) (A) (A)
                 (A) (A) (A) (A) (A) (A) (A) (A) (A) (A) (A) (A)
                 (A) (A) (A) (A) (A) (A) (A) (A) (A) (A) (A) (A)
                 (A) (A) (A) (A) (A) (A) (A) (A) (A) (A) (A) (A)
                 (A) (A) (A) (A) (A) (A) (A) (A) (A) (A) (A) (A)
                 (A) (A) (A) (A) (A) (A) (A) (A) (A) (A) (A) (A)
                 (A) (A) (A) (A) (A) (A) (A) (A) (A) (A) (A) (A)
                 (A) (A) (A) (A) (A) (A) (A) (A) (A) (A) (A) (A)
                 (A) (A) (A) (A) (A) (A) (A) (A) (A) (A) (A) (A)
                 (A)
 The electronic state is 1-A.
 Alpha  occ. eigenvalues --  -24.81088 -24.80959 -19.26070 -19.21545 -19.19345
 Alpha  occ. eigenvalues --  -14.48905 -14.43076 -14.40401 -14.38718 -10.40139
 Alpha  occ. eigenvalues --  -10.34904 -10.34817 -10.34153 -10.34090 -10.33689
 Alpha  occ. eigenvalues --  -10.33165 -10.33098 -10.32181 -10.28725 -10.28687
 Alpha  occ. eigenvalues --  -10.28570 -10.28062 -10.27830 -10.27794 -10.27420
 Alpha  occ. eigenvalues --  -10.27293 -10.24242 -10.23799  -1.26401  -1.26254
 Alpha  occ. eigenvalues --   -1.13328  -1.05308  -1.04435  -1.03264  -0.98320
 Alpha  occ. eigenvalues --   -0.95315  -0.92075  -0.90253  -0.87345  -0.83507
 Alpha  occ. eigenvalues --   -0.80974  -0.80261  -0.76767  -0.73742  -0.71860
 Alpha  occ. eigenvalues --   -0.71478  -0.69820  -0.67857  -0.65543  -0.64000
 Alpha  occ. eigenvalues --   -0.63471  -0.62676  -0.61004  -0.60776  -0.58966
 Alpha  occ. eigenvalues --   -0.58283  -0.56861  -0.55561  -0.53824  -0.53234
 Alpha  occ. eigenvalues --   -0.52837  -0.51783  -0.50764  -0.50225  -0.49160
 Alpha  occ. eigenvalues --   -0.48783  -0.48533  -0.47950  -0.47621  -0.47525
 Alpha  occ. eigenvalues --   -0.47032  -0.46512  -0.45723  -0.45248  -0.44778
 Alpha  occ. eigenvalues --   -0.44100  -0.43666  -0.42665  -0.41697  -0.41663
 Alpha  occ. eigenvalues --   -0.40909  -0.40764  -0.40414  -0.40033  -0.39342
 Alpha  occ. eigenvalues --   -0.39183  -0.38689  -0.38289  -0.37799  -0.35703
 Alpha  occ. eigenvalues --   -0.35217  -0.35044  -0.34343  -0.33690  -0.33342
 Alpha  occ. eigenvalues --   -0.32668  -0.31101  -0.29178  -0.26201  -0.25353
 Alpha  occ. eigenvalues --   -0.24779  -0.22138  -0.20999
 Alpha virt. eigenvalues --   -0.05192  -0.04303   0.01105   0.02783   0.05330
 Alpha virt. eigenvalues --    0.08644   0.09456   0.09989   0.10141   0.10332
 Alpha virt. eigenvalues --    0.11285   0.11416   0.11911   0.12550   0.12845
 Alpha virt. eigenvalues --    0.13386   0.13817   0.13993   0.15305   0.15640
 Alpha virt. eigenvalues --    0.16490   0.16835   0.17042   0.17575   0.18050
 Alpha virt. eigenvalues --    0.18936   0.19345   0.19787   0.20189   0.20554
 Alpha virt. eigenvalues --    0.20687   0.21173   0.21907   0.22079   0.22572
 Alpha virt. eigenvalues --    0.22750   0.23204   0.23310   0.23710   0.24077
 Alpha virt. eigenvalues --    0.24314   0.24798   0.25110   0.25925   0.26288
 Alpha virt. eigenvalues --    0.26710   0.27219   0.27517   0.28029   0.28319
 Alpha virt. eigenvalues --    0.28619   0.29064   0.29613   0.30377   0.30787
 Alpha virt. eigenvalues --    0.31318   0.31681   0.31868   0.32275   0.32434
 Alpha virt. eigenvalues --    0.33325   0.33804   0.34344   0.34506   0.35043
 Alpha virt. eigenvalues --    0.35361   0.36104   0.36324   0.37125   0.37997
 Alpha virt. eigenvalues --    0.38018   0.38270   0.39076   0.39504   0.39919
 Alpha virt. eigenvalues --    0.40711   0.41726   0.42222   0.42805   0.43082
 Alpha virt. eigenvalues --    0.43765   0.44032   0.44591   0.44730   0.45138
 Alpha virt. eigenvalues --    0.46106   0.46542   0.46721   0.47523   0.47531
 Alpha virt. eigenvalues --    0.48897   0.49234   0.50035   0.50539   0.51232
 Alpha virt. eigenvalues --    0.51450   0.52400   0.53605   0.54193   0.55496
 Alpha virt. eigenvalues --    0.56770   0.57729   0.58931   0.59348   0.59716
 Alpha virt. eigenvalues --    0.60418   0.62611   0.62768   0.63614   0.65113
 Alpha virt. eigenvalues --    0.65544   0.66881   0.67031   0.68466   0.69812
 Alpha virt. eigenvalues --    0.70661   0.71368   0.73246   0.75252   0.76352
 Alpha virt. eigenvalues --    0.77328   0.79113   0.80943   0.83059   0.84146
 Alpha virt. eigenvalues --    0.84920   0.85126   0.87293   0.89143   0.90279
 Alpha virt. eigenvalues --    0.90823   0.91708   0.92005   0.94916   0.95579
 Alpha virt. eigenvalues --    0.96461   0.99269   0.99429   1.00003   1.01465
 Alpha virt. eigenvalues --    1.02807   1.03263   1.03919   1.05073   1.06258
 Alpha virt. eigenvalues --    1.06529   1.07073   1.08230   1.08935   1.09407
 Alpha virt. eigenvalues --    1.10730   1.11438   1.12113   1.12539   1.13300
 Alpha virt. eigenvalues --    1.14852   1.15420   1.15841   1.16995   1.19136
 Alpha virt. eigenvalues --    1.20037   1.20306   1.21967   1.22669   1.23936
 Alpha virt. eigenvalues --    1.25392   1.25842   1.28457   1.31174   1.31576
 Alpha virt. eigenvalues --    1.35192   1.36077   1.38056   1.41053   1.43940
 Alpha virt. eigenvalues --    1.44973   1.47663   1.49878   1.52090   1.52673
 Alpha virt. eigenvalues --    1.56185   1.58492   1.60310   1.71362   1.76602
 Alpha virt. eigenvalues --    1.81274   1.82920   1.85702   1.91089   1.97815
 Alpha virt. eigenvalues --    2.01485   2.21258   2.30589
          Condensed to atoms (all electrons):
               1          2          3          4          5          6
     1  F    9.085766  -0.000003   0.000000   0.000000   0.000000   0.006426
     2  F   -0.000003   9.092920   0.000002   0.000000   0.000000  -0.000001
     3  O    0.000000   0.000002   7.906503  -0.009302  -0.000001   0.000397
     4  O    0.000000   0.000000  -0.009302   8.083228  -0.084486   0.000027
     5  O    0.000000   0.000000  -0.000001  -0.084486   7.886193   0.001031
     6  N    0.006426  -0.000001   0.000397   0.000027   0.001031   6.626932
     7  N    0.004306   0.001161   0.000000   0.000000   0.000000  -0.000085
     8  N   -0.000008   0.000153   0.000000   0.000000   0.000000   0.000000
     9  N    0.000000   0.003170  -0.051035   0.000003   0.000000  -0.000067
    10  C    0.005102   0.000000   0.000004   0.000003   0.000272   0.267932
    11  C   -0.004039   0.000000   0.000000   0.000000   0.000003  -0.035922
    12  C    0.001526   0.000000   0.000000  -0.000002  -0.000007  -0.016938
    13  C   -0.071726  -0.001361  -0.007946  -0.000558  -0.000885   0.133062
    14  C    0.000135  -0.000457   0.000000   0.000000   0.000000  -0.000006
    15  C   -0.000022  -0.001501   0.000000   0.000000   0.000000   0.000000
    16  C   -0.006576   0.000286   0.000000   0.000000   0.000000  -0.000024
    17  C   -0.000275   0.001993   0.000000   0.000000   0.000000  -0.000003
    18  C   -0.099327  -0.057905  -0.000280   0.000000   0.000000   0.006796
    19  C    0.001016   0.000000   0.001562  -0.005772   0.003539   0.392826
    20  C   -0.008492  -0.005572  -0.088508  -0.000392   0.000458  -0.044478
    21  C    0.349568  -0.002092   0.000136  -0.000007  -0.000036   0.034354
    22  C   -0.000876  -0.102079   0.010986   0.000147   0.000042   0.005318
    23  C    0.000035  -0.000005  -0.084504  -0.027151  -0.062910  -0.059189
    24  C   -0.006017   0.333884  -0.005962   0.000001   0.000001   0.001823
    25  C   -0.000154  -0.000093   0.622568   0.002830  -0.003871  -0.011524
    26  C    0.000025  -0.000002   0.000000   0.000000   0.000000   0.000000
    27  C    0.000000   0.000240   0.000000   0.000000   0.000000   0.000000
    28  C    0.000000   0.000000  -0.009084   0.247866   0.589971   0.008740
    29  H   -0.003067   0.000000   0.000000   0.000000  -0.000001  -0.030114
    30  H    0.000041   0.000000   0.000000   0.000000   0.000000   0.000588
    31  H   -0.000517   0.000000   0.000000   0.000000   0.000000  -0.004728
    32  H   -0.000016   0.000000   0.000000   0.000000   0.000043  -0.007021
    33  H    0.000012   0.000000   0.000000   0.000000   0.000000   0.000519
    34  H    0.000018   0.000031   0.000000   0.000000   0.000000   0.000000
    35  H    0.000000   0.001319   0.000000   0.000000   0.000000   0.000000
    36  H    0.004432   0.000000   0.000000   0.000000   0.000000   0.000053
    37  H   -0.000654  -0.000002   0.000000   0.000000   0.000000   0.000000
    38  H    0.000004   0.000349   0.000000   0.000000   0.000000   0.000000
    39  H   -0.000008  -0.002675   0.000000   0.000000   0.000000   0.000000
    40  H   -0.000002   0.000000  -0.000057   0.000353   0.014140  -0.034586
    41  H    0.000000  -0.000002   0.000000   0.000000   0.000000   0.000000
    42  H    0.000000   0.000000   0.000000   0.000000   0.000000   0.000000
    43  H    0.000000   0.000000   0.000000   0.000000   0.000000   0.000000
    44  H   -0.000001   0.000000   0.000000   0.000000   0.000000   0.000000
    45  H    0.000000   0.000031   0.000000   0.000000   0.000000   0.000000
    46  H    0.000000   0.000000   0.000000   0.000000   0.000000   0.000000
    47  H    0.000000   0.000002   0.000000   0.000000   0.000000   0.000000
    48  H    0.000000   0.000226   0.060013   0.000000   0.000000  -0.000007
    49  H    0.000000   0.008456   0.001740   0.000000   0.000000   0.000001
    50  H    0.000000   0.000000   0.000458   0.244389   0.003502   0.000001
               7          8          9         10         11         12
     1  F    0.004306  -0.000008   0.000000   0.005102  -0.004039   0.001526
     2  F    0.001161   0.000153   0.003170   0.000000   0.000000   0.000000
     3  O    0.000000   0.000000  -0.051035   0.000004   0.000000   0.000000
     4  O    0.000000   0.000000   0.000003   0.000003   0.000000  -0.000002
     5  O    0.000000   0.000000   0.000000   0.000272   0.000003  -0.000007
     6  N   -0.000085   0.000000  -0.000067   0.267932  -0.035922  -0.016938
     7  N    6.918470  -0.012548  -0.000120  -0.000037  -0.000008  -0.000003
     8  N   -0.012548   6.756220   0.000000   0.000000   0.000000   0.000000
     9  N   -0.000120   0.000000   7.017815   0.000003  -0.000001   0.000000
    10  C   -0.000037   0.000000   0.000003   5.280512   0.153603   0.155041
    11  C   -0.000008   0.000000  -0.000001   0.153603   5.535780   0.129475
    12  C   -0.000003   0.000000   0.000000   0.155041   0.129475   5.587584
    13  C    0.009574  -0.000029  -0.004320   0.018221   0.021101  -0.012490
    14  C   -0.080368   0.344873  -0.000007   0.000000  -0.000023  -0.000001
    15  C   -0.066305   0.333558  -0.000018   0.000000   0.000000   0.000000
    16  C    0.263642  -0.077343   0.000010   0.000140  -0.000011   0.000005
    17  C    0.275629  -0.077587   0.000167   0.000001  -0.000001   0.000000
    18  C    0.105228  -0.004071   0.010217  -0.005996  -0.004455   0.000682
    19  C    0.000014   0.000000  -0.000046  -0.062648  -0.010079   0.012656
    20  C    0.001640   0.000004  -0.070862   0.018208   0.004437  -0.003876
    21  C   -0.009156  -0.000180   0.003025  -0.049533  -0.018630   0.008770
    22  C    0.005344   0.000045   0.249553   0.000965   0.000160  -0.000125
    23  C   -0.000008   0.000000   0.000816   0.003993  -0.001719   0.001763
    24  C   -0.019806   0.001300   0.030118  -0.000353  -0.000219   0.000023
    25  C    0.000026   0.000000   0.009651   0.000740   0.000093   0.000060
    26  C    0.009544  -0.061681   0.000000   0.000000   0.000011   0.000000
    27  C    0.008536  -0.059646   0.000000   0.000000   0.000000   0.000000
    28  C    0.000000   0.000000  -0.000073   0.000091   0.000039   0.000056
    29  H    0.000001   0.000000   0.000000   0.372782  -0.017299  -0.032353
    30  H    0.000002   0.000000   0.000000  -0.015102   0.353558  -0.015181
    31  H   -0.000002   0.000000   0.000000  -0.016903   0.388765  -0.024299
    32  H    0.000000   0.000000   0.000000  -0.017666  -0.019516   0.379110
    33  H    0.000000   0.000000   0.000000  -0.013805  -0.011121   0.350252
    34  H    0.003729  -0.053447   0.000001   0.000001   0.000009   0.000000
    35  H   -0.002075  -0.046689   0.000004   0.000000   0.000000   0.000000
    36  H   -0.039954   0.005561   0.000000  -0.000004   0.000158   0.000017
    37  H   -0.050858  -0.004907   0.000000   0.000001   0.000008   0.000000
    38  H   -0.048397  -0.006056   0.000000   0.000000   0.000000   0.000000
    39  H   -0.037550   0.005763  -0.000030   0.000000   0.000000   0.000000
    40  H    0.000000   0.000000   0.000000  -0.000901   0.000444   0.000715
    41  H    0.000041   0.297671   0.000000   0.000000   0.000000   0.000000
    42  H   -0.000142   0.001458   0.000000   0.000000   0.000000   0.000000
    43  H    0.000052  -0.006460   0.000000   0.000000   0.000000   0.000000
    44  H   -0.000046   0.003179   0.000000   0.000000   0.000006   0.000000
    45  H    0.000026   0.003062   0.000000   0.000000   0.000000   0.000000
    46  H   -0.000034  -0.006160   0.000000   0.000000   0.000000   0.000000
    47  H   -0.000133   0.000745   0.000000   0.000000   0.000000   0.000000
    48  H    0.000001   0.000000   0.256098   0.000001   0.000000   0.000000
    49  H    0.000003   0.000000   0.308101   0.000000   0.000000   0.000000
    50  H    0.000000   0.000000   0.000000   0.000000   0.000000   0.000000
              13         14         15         16         17         18
     1  F   -0.071726   0.000135  -0.000022  -0.006576  -0.000275  -0.099327
     2  F   -0.001361  -0.000457  -0.001501   0.000286   0.001993  -0.057905
     3  O   -0.007946   0.000000   0.000000   0.000000   0.000000  -0.000280
     4  O   -0.000558   0.000000   0.000000   0.000000   0.000000   0.000000
     5  O   -0.000885   0.000000   0.000000   0.000000   0.000000   0.000000
     6  N    0.133062  -0.000006   0.000000  -0.000024  -0.000003   0.006796
     7  N    0.009574  -0.080368  -0.066305   0.263642   0.275629   0.105228
     8  N   -0.000029   0.344873   0.333558  -0.077343  -0.077587  -0.004071
     9  N   -0.004320  -0.000007  -0.000018   0.000010   0.000167   0.010217
    10  C    0.018221   0.000000   0.000000   0.000140   0.000001  -0.005996
    11  C    0.021101  -0.000023   0.000000  -0.000011  -0.000001  -0.004455
    12  C   -0.012490  -0.000001   0.000000   0.000005   0.000000   0.000682
    13  C    6.407218   0.000531   0.000131  -0.001854   0.000816  -0.307914
    14  C    0.000531   5.231300  -0.043055   0.251422   0.000792  -0.012694
    15  C    0.000131  -0.043055   5.250672   0.009077   0.243630  -0.011766
    16  C   -0.001854   0.251422   0.009077   5.558804  -0.039994  -0.037345
    17  C    0.000816   0.000792   0.243630  -0.039994   5.517615  -0.052621
    18  C   -0.307914  -0.012694  -0.011766  -0.037345  -0.052621   6.230285
    19  C   -0.140509  -0.000001   0.000000   0.000008   0.000000   0.000617
    20  C   -0.052127   0.000106  -0.000080  -0.000381  -0.000232  -0.256206
    21  C    0.263928   0.004846   0.000477  -0.018109   0.001349   0.236733
    22  C   -0.361416   0.000050  -0.001138  -0.000376  -0.003650  -0.357842
    23  C    0.096159   0.000000   0.000000   0.000000   0.000000   0.000272
    24  C   -0.257759   0.000489  -0.005135  -0.000485  -0.004445   0.257350
    25  C    0.017942   0.000005  -0.000003  -0.000030   0.000012  -0.003421
    26  C   -0.000072   0.239103   0.008155  -0.078073  -0.003285  -0.000823
    27  C    0.000002   0.008905   0.237083  -0.004373  -0.076487   0.001496
    28  C   -0.003185   0.000000   0.000000   0.000000   0.000000  -0.000038
    29  H    0.000347   0.000000   0.000000  -0.000010   0.000000   0.000332
    30  H    0.001197  -0.000004   0.000000   0.000027   0.000000  -0.000170
    31  H    0.003026   0.000003   0.000000   0.000022   0.000000   0.000193
    32  H    0.000299   0.000000   0.000000   0.000000   0.000000  -0.000009
    33  H    0.000076   0.000000   0.000000   0.000000   0.000000  -0.000001
    34  H    0.000098   0.320497  -0.014484  -0.070990  -0.003409   0.006959
    35  H   -0.000019  -0.015054   0.341681  -0.002632  -0.077415   0.007808
    36  H   -0.004103  -0.020175  -0.000289   0.334100   0.005526   0.010728
    37  H    0.000010  -0.044534  -0.004705   0.324876   0.000073   0.007852
    38  H   -0.000065  -0.002460  -0.045344  -0.008515   0.351313   0.007985
    39  H    0.000027  -0.000096  -0.018404   0.005390   0.336910  -0.004487
    40  H   -0.003184   0.000000   0.000000   0.000000   0.000000   0.000003
    41  H    0.000000  -0.045330  -0.049267  -0.008227  -0.003507   0.000591
    42  H    0.000000  -0.031358   0.000134   0.005020   0.000022   0.000007
    43  H    0.000000  -0.030808   0.000038  -0.011382   0.000056   0.000023
    44  H    0.000000  -0.021606  -0.000167   0.002404   0.000085   0.000033
    45  H    0.000000  -0.000181  -0.023437   0.000092   0.002798  -0.000053
    46  H    0.000000   0.000227  -0.034052  -0.000075  -0.008859   0.000035
    47  H    0.000000  -0.000058  -0.028423   0.000066   0.004758  -0.000047
    48  H    0.000337   0.000000   0.000001   0.000000  -0.000002   0.000537
    49  H    0.001059   0.000001  -0.000004   0.000000   0.000020  -0.003034
    50  H    0.000008   0.000000   0.000000   0.000000   0.000000   0.000000
              19         20         21         22         23         24
     1  F    0.001016  -0.008492   0.349568  -0.000876   0.000035  -0.006017
     2  F    0.000000  -0.005572  -0.002092  -0.102079  -0.000005   0.333884
     3  O    0.001562  -0.088508   0.000136   0.010986  -0.084504  -0.005962
     4  O   -0.005772  -0.000392  -0.000007   0.000147  -0.027151   0.000001
     5  O    0.003539   0.000458  -0.000036   0.000042  -0.062910   0.000001
     6  N    0.392826  -0.044478   0.034354   0.005318  -0.059189   0.001823
     7  N    0.000014   0.001640  -0.009156   0.005344  -0.000008  -0.019806
     8  N    0.000000   0.000004  -0.000180   0.000045   0.000000   0.001300
     9  N   -0.000046  -0.070862   0.003025   0.249553   0.000816   0.030118
    10  C   -0.062648   0.018208  -0.049533   0.000965   0.003993  -0.000353
    11  C   -0.010079   0.004437  -0.018630   0.000160  -0.001719  -0.000219
[...]
    47  H    0.000000  -0.000012   0.372035   0.000000   0.000000   0.000000
    48  H   -0.009290   0.000000   0.000000   0.000048   0.000000   0.000000
    49  H    0.001938   0.000000   0.000000   0.000000   0.000000   0.000000
    50  H    0.001297   0.000000   0.000000  -0.029390   0.000000   0.000000
              31         32         33         34         35         36
     1  F   -0.000167  -0.000012   0.000012  -0.000003   0.000000  -0.002886
     2  F    0.000000   0.000000   0.000000   0.000009   0.000448   0.000003
     3  O    0.000000   0.000000   0.000000   0.000000   0.000000   0.000000
     4  O    0.000000   0.000000   0.000000   0.000000   0.000000   0.000000
     5  O    0.000000   0.000041   0.000000   0.000000   0.000000   0.000000
     6  N   -0.004399  -0.007113   0.000597   0.000000   0.000000   0.000019
     7  N   -0.000001   0.000000   0.000000   0.006497  -0.000632  -0.037946
     8  N    0.000000   0.000000   0.000000  -0.057640  -0.052956   0.005517
     9  N    0.000000   0.000000   0.000000   0.000000  -0.000001   0.000000
    10  C   -0.018265  -0.017208  -0.014209   0.000000   0.000000  -0.000072
    11  C    0.388376  -0.019614  -0.012311   0.000002   0.000000   0.000284
    12  C   -0.022751   0.379906   0.351093   0.000000   0.000000   0.000012
    13  C    0.003140   0.000372   0.000037  -0.000010  -0.000015  -0.000829
    14  C   -0.000002   0.000000   0.000000   0.322519  -0.014022  -0.022252
    15  C    0.000000   0.000000   0.000000  -0.011856   0.337757  -0.000531
    16  C    0.000017   0.000000   0.000000  -0.076035  -0.002693   0.343478
    17  C    0.000000   0.000000   0.000000  -0.003444  -0.071961   0.006364
    18  C    0.000168  -0.000009  -0.000001   0.001541  -0.000668   0.002074
    19  C    0.000542   0.002214   0.000205   0.000000   0.000000   0.000000
    20  C    0.000574   0.000142   0.000020   0.000002   0.000010  -0.000017
    21  C   -0.002110  -0.000265  -0.000032   0.000252  -0.000117  -0.001545
    22  C    0.000049   0.000006   0.000000  -0.000004   0.000312   0.000112
    23  C   -0.000048   0.000333  -0.000058   0.000000   0.000000   0.000000
    24  C   -0.000012   0.000000   0.000000  -0.000591   0.002329   0.001094
    25  C    0.000000   0.000039  -0.000002   0.000000   0.000000   0.000001
    26  C    0.000000   0.000000   0.000000  -0.032236   0.001193   0.003845
    27  C    0.000000   0.000000   0.000000   0.001544  -0.032436  -0.000024
    28  C   -0.000001   0.000140   0.000000   0.000000   0.000000   0.000000
    29  H    0.001099   0.000856  -0.000779   0.000000   0.000000   0.000002
    30  H   -0.009129   0.000788  -0.003993   0.000000   0.000000   0.000002
    31  H    0.426982  -0.003576   0.000936   0.000000   0.000000   0.000014
    32  H   -0.003576   0.428487  -0.009914   0.000000   0.000000   0.000000
    33  H    0.000936  -0.009914   0.435038   0.000000   0.000000   0.000000
    34  H    0.000000   0.000000   0.000000   0.611569   0.009374  -0.000352
    35  H    0.000000   0.000000   0.000000   0.009374   0.569125   0.000181
    36  H    0.000014   0.000000   0.000000  -0.000352   0.000181   0.506122
    37  H    0.000000   0.000000   0.000000   0.005930   0.000135  -0.020393
    38  H    0.000000   0.000000   0.000000   0.000175   0.005030   0.000199
    39  H    0.000000   0.000000   0.000000   0.000195  -0.000599  -0.000086
    40  H    0.000056  -0.000747  -0.000020   0.000000   0.000000   0.000000
    41  H    0.000000   0.000000   0.000000   0.006674   0.006386   0.000045
    42  H    0.000000   0.000000   0.000000  -0.003202  -0.000002  -0.000053
    43  H    0.000000   0.000000   0.000000   0.004517   0.000007   0.000203
    44  H    0.000000   0.000000   0.000000  -0.003456  -0.000009  -0.000080
    45  H    0.000000   0.000000   0.000000  -0.000008  -0.002759   0.000000
    46  H    0.000000   0.000000   0.000000   0.000009   0.004295   0.000000
    47  H    0.000000   0.000000   0.000000  -0.000013  -0.003158   0.000000
    48  H    0.000000   0.000000   0.000000   0.000000   0.000000   0.000000
    49  H    0.000000   0.000000   0.000000   0.000000   0.000001   0.000000
    50  H    0.000000   0.000000   0.000000   0.000000   0.000000   0.000000
              37         38         39         40         41         42
     1  F   -0.001584   0.000014  -0.000010  -0.000002   0.000000   0.000000
     2  F   -0.000003   0.000228  -0.000096   0.000000   0.000000   0.000000
     3  O    0.000000   0.000000   0.000000  -0.000052   0.000000   0.000000
     4  O    0.000000   0.000000   0.000000   0.000343   0.000000   0.000000
     5  O    0.000000   0.000000   0.000000   0.011329   0.000000   0.000000
     6  N    0.000001   0.000000   0.000000  -0.034667   0.000000   0.000000
     7  N   -0.059647  -0.063996  -0.034182   0.000000  -0.000337  -0.000088
     8  N   -0.001684  -0.005067   0.006186   0.000000   0.306009   0.000088
     9  N    0.000000   0.000000  -0.000004   0.000000   0.000000   0.000000
    10  C    0.000011   0.000000   0.000000  -0.001815   0.000000   0.000000
    11  C    0.000008   0.000000   0.000000   0.000789   0.000000   0.000000
    12  C    0.000000   0.000000   0.000000  -0.000158   0.000000   0.000000
    13  C   -0.000219  -0.000160   0.000090  -0.002706   0.000000   0.000000
    14  C   -0.044437  -0.002001  -0.000161   0.000000  -0.046397  -0.028956
    15  C   -0.001920  -0.047295  -0.014298   0.000000  -0.043816   0.000015
    16  C    0.342125  -0.002580   0.005615   0.000000  -0.003830   0.005037
    17  C    0.000400   0.356564   0.339316   0.000000  -0.004476   0.000006
    18  C    0.002696   0.005778  -0.000787   0.000004   0.000221   0.000009
    19  C    0.000000   0.000000   0.000000   0.318550   0.000000   0.000000
    20  C   -0.000002   0.000003  -0.000016  -0.001225   0.000000   0.000000
    21  C   -0.000531  -0.002091   0.000961   0.000498   0.000012   0.000001
    22  C    0.000015   0.000299  -0.001026  -0.000015   0.000000   0.000000
    23  C    0.000000   0.000000   0.000000  -0.019788   0.000000   0.000000
    24  C   -0.000005   0.004782  -0.003604  -0.000001  -0.000015  -0.000001
    25  C    0.000000   0.000000   0.000000   0.004202   0.000000   0.000000
    26  C   -0.001863   0.000336  -0.000028   0.000000  -0.003626   0.373835
    27  C    0.000417  -0.002451   0.004593   0.000000  -0.003224  -0.000020
    28  C    0.000000   0.000000   0.000000  -0.005716   0.000000   0.000000
    29  H   -0.000001   0.000000   0.000000   0.000355   0.000000   0.000000
    30  H    0.000002   0.000000   0.000000  -0.000010   0.000000   0.000000
    31  H    0.000000   0.000000   0.000000   0.000056   0.000000   0.000000
    32  H    0.000000   0.000000   0.000000  -0.000747   0.000000   0.000000
    33  H    0.000000   0.000000   0.000000  -0.000020   0.000000   0.000000
    34  H    0.005930   0.000175   0.000195   0.000000   0.006674  -0.003202
    35  H    0.000135   0.005030  -0.000599   0.000000   0.006386  -0.000002
    36  H   -0.020393   0.000199  -0.000086   0.000000   0.000045  -0.000053
    37  H    0.571848   0.004327   0.000170   0.000000   0.003169   0.000007
    38  H    0.004327   0.564284  -0.026336   0.000000   0.003828   0.000000
    39  H    0.000170  -0.026336   0.493811   0.000000   0.000027   0.000000
    40  H    0.000000   0.000000   0.000000   0.434066   0.000000   0.000000
    41  H    0.003169   0.003828   0.000027   0.000000   0.518883  -0.000451
    42  H    0.000007   0.000000   0.000000   0.000000  -0.000451   0.452860
    43  H    0.005593  -0.000003   0.000001   0.000000   0.004709  -0.022050
    44  H   -0.000101  -0.000001   0.000000   0.000000   0.000047  -0.017996
    45  H   -0.000001   0.000234  -0.000128   0.000000   0.000051   0.000000
    46  H    0.000002   0.005029   0.000238   0.000000   0.004816   0.000000
    47  H   -0.000001  -0.000006  -0.000049   0.000000  -0.000488   0.000000
    48  H    0.000000   0.000000   0.000000   0.000000   0.000000   0.000000
    49  H    0.000000   0.000000   0.000004   0.000000   0.000000   0.000000
    50  H    0.000000   0.000000   0.000000   0.000000   0.000000   0.000000
              43         44         45         46         47         48
     1  F    0.000000   0.000001   0.000000   0.000000   0.000000   0.000000
     2  F    0.000000   0.000000  -0.000006   0.000000   0.000000   0.000217
     3  O    0.000000   0.000000   0.000000   0.000000   0.000000   0.051056
     4  O    0.000000   0.000000   0.000000   0.000000   0.000000   0.000001
     5  O    0.000000   0.000000   0.000000   0.000000   0.000000   0.000000
     6  N    0.000000   0.000000   0.000000   0.000000   0.000000  -0.000006
     7  N   -0.000060   0.000014   0.000036  -0.000058  -0.000094   0.000001
     8  N   -0.006625   0.003321   0.003195  -0.006420  -0.000072   0.000000
     9  N    0.000000   0.000000   0.000000   0.000000   0.000000   0.268374
    10  C    0.000000   0.000000   0.000000   0.000000   0.000000   0.000001
    11  C    0.000000   0.000002   0.000000   0.000000   0.000000   0.000000
    12  C    0.000000   0.000000   0.000000   0.000000   0.000000   0.000000
    13  C    0.000000   0.000001   0.000000   0.000000   0.000000   0.000560
    14  C   -0.028968  -0.021923  -0.000163   0.000271  -0.000082   0.000000
    15  C    0.000197  -0.000170  -0.023218  -0.031392  -0.026583   0.000000
    16  C   -0.013102   0.003260   0.000081  -0.000004   0.000029   0.000000
    17  C    0.000055   0.000092   0.002659  -0.011436   0.004978  -0.000001
    18  C   -0.000015   0.000030   0.000018  -0.000020  -0.000014   0.000381
    19  C    0.000000   0.000000   0.000000   0.000000   0.000000  -0.000069
    20  C    0.000000   0.000000   0.000000   0.000000   0.000000  -0.003191
    21  C    0.000005   0.000008  -0.000001  -0.000001  -0.000001  -0.000140
    22  C    0.000000   0.000000   0.000001   0.000000   0.000000  -0.020041
    23  C    0.000000   0.000000   0.000000   0.000000   0.000000   0.000560
    24  C    0.000000  -0.000002  -0.000007   0.000022   0.000010   0.003920
    25  C    0.000000   0.000000   0.000000   0.000000   0.000000  -0.009290
    26  C    0.367975   0.360769   0.000010  -0.000004  -0.000012   0.000000
    27  C    0.000002   0.000009   0.363658   0.367961   0.372035   0.000000
    28  C    0.000000   0.000000   0.000000   0.000000   0.000000   0.000048
    29  H    0.000000   0.000000   0.000000   0.000000   0.000000   0.000000
    30  H    0.000000   0.000000   0.000000   0.000000   0.000000   0.000000
    31  H    0.000000   0.000000   0.000000   0.000000   0.000000   0.000000
    32  H    0.000000   0.000000   0.000000   0.000000   0.000000   0.000000
    33  H    0.000000   0.000000   0.000000   0.000000   0.000000   0.000000
    34  H    0.004517  -0.003456  -0.000008   0.000009  -0.000013   0.000000
    35  H    0.000007  -0.000009  -0.002759   0.004295  -0.003158   0.000000
    36  H    0.000203  -0.000080   0.000000   0.000000   0.000000   0.000000
    37  H    0.005593  -0.000101  -0.000001   0.000002  -0.000001   0.000000
    38  H   -0.000003  -0.000001   0.000234   0.005029  -0.000006   0.000000
    39  H    0.000001   0.000000  -0.000128   0.000238  -0.000049   0.000000
    40  H    0.000000   0.000000   0.000000   0.000000   0.000000   0.000000
    41  H    0.004709   0.000047   0.000051   0.004816  -0.000488   0.000000
    42  H   -0.022050  -0.017996   0.000000   0.000000   0.000000   0.000000
    43  H    0.525377  -0.025049   0.000000   0.000001   0.000000   0.000000
    44  H   -0.025049   0.497387   0.000000   0.000000   0.000000   0.000000
    45  H    0.000000   0.000000   0.486638  -0.024439  -0.017551   0.000000
    46  H    0.000001   0.000000  -0.024439   0.530664  -0.022987   0.000000
    47  H    0.000000   0.000000  -0.017551  -0.022987   0.455157   0.000000
    48  H    0.000000   0.000000   0.000000   0.000000   0.000000   0.306076
    49  H    0.000000   0.000000   0.000000   0.000000   0.000000  -0.011637
    50  H    0.000000   0.000000   0.000000   0.000000   0.000000   0.000000
              49         50
     1  F    0.000000   0.000000
     2  F    0.008133   0.000000
     3  O    0.001580   0.000228
     4  O    0.000000   0.250270
     5  O    0.000000   0.002955
     6  N    0.000001   0.000001
     7  N    0.000005   0.000000
     8  N    0.000000   0.000000
     9  N    0.307387   0.000000
    10  C    0.000000   0.000000
    11  C    0.000000   0.000000
    12  C    0.000000   0.000000
    13  C    0.000983   0.000010
    14  C    0.000000   0.000000
    15  C   -0.000004   0.000000
    16  C    0.000000   0.000000
    17  C    0.000007   0.000000
    18  C   -0.002680   0.000000
    19  C   -0.000002  -0.000324
    20  C    0.012099   0.000031
    21  C   -0.000261   0.000000
    22  C   -0.014361  -0.000004
    23  C    0.000058   0.005132
    24  C   -0.031858   0.000000
    25  C    0.001938   0.001297
    26  C    0.000000   0.000000
    27  C    0.000000   0.000000
    28  C    0.000000  -0.029390
    29  H    0.000000   0.000000
    30  H    0.000000   0.000000
    31  H    0.000000   0.000000
    32  H    0.000000   0.000000
    33  H    0.000000   0.000000
    34  H    0.000000   0.000000
    35  H    0.000001   0.000000
    36  H    0.000000   0.000000
    37  H    0.000000   0.000000
    38  H    0.000000   0.000000
    39  H    0.000004   0.000000
    40  H    0.000000   0.000000
    41  H    0.000000   0.000000
    42  H    0.000000   0.000000
    43  H    0.000000   0.000000
    44  H    0.000000   0.000000
    45  H    0.000000   0.000000
    46  H    0.000000   0.000000
    47  H    0.000000   0.000000
    48  H   -0.011637   0.000000
    49  H    0.381219   0.000000
    50  H    0.000000   0.362843
 Mulliken charges:
               1
     1  F   -0.256107
     2  F   -0.268763
     3  O   -0.347061
     4  O   -0.453155
     5  O   -0.349351
     6  N   -0.243722
     7  N   -0.252213
     8  N   -0.353061
     9  N   -0.757319
    10  C   -0.099131
    11  C   -0.471401
    12  C   -0.515262
    13  C    0.251240
    14  C   -0.053422
    15  C   -0.064458
    16  C   -0.337885
    17  C   -0.365365
    18  C    0.319967
    19  C   -0.281350
    20  C    0.184328
    21  C    0.048883
    22  C    0.155135
    23  C    0.106793
    24  C   -0.124333
    25  C    0.181495
    26  C   -0.707733
    27  C   -0.711694
    28  C    0.195640
    29  H    0.280523
    30  H    0.262051
    31  H    0.238507
    32  H    0.245134
    33  H    0.253383
    34  H    0.218040
    35  H    0.245443
    36  H    0.217491
    37  H    0.195536
    38  H    0.200872
    39  H    0.230203
    40  H    0.296731
    41  H    0.251783
    42  H    0.240959
    43  H    0.187229
    44  H    0.203847
    45  H    0.211701
    46  H    0.183452
    47  H    0.238902
    48  H    0.413179
    49  H    0.347388
    50  H    0.406953
 Sum of Mulliken charges =   0.00000
 Mulliken charges with hydrogens summed into heavy atoms:
               1
     1  F   -0.256107
     2  F   -0.268763
     3  O   -0.347061
     4  O   -0.046203
     5  O   -0.349351
     6  N   -0.243722
     7  N   -0.252213
     8  N   -0.101278
     9  N    0.003248
    10  C    0.181392
    11  C    0.029158
    12  C   -0.016745
    13  C    0.251240
    14  C    0.164618
    15  C    0.180985
    16  C    0.075142
    17  C    0.065710
    18  C    0.319967
    19  C    0.015380
    20  C    0.184328
    21  C    0.048883
    22  C    0.155135
    23  C    0.106793
    24  C   -0.124333
    25  C    0.181495
    26  C   -0.075699
    27  C   -0.077639
    28  C    0.195640
 Electronic spatial extent (au):  <R**2>=          12712.0544
 Charge=              0.0000 electrons
 Dipole moment (field-independent basis, Debye):
    X=              4.1061    Y=              3.6165    Z=             -1.2423  Tot=              5.6109
 Quadrupole moment (field-independent basis, Debye-Ang):
   XX=           -176.0454   YY=           -151.3458   ZZ=           -162.1517
   XY=             -3.3146   XZ=             -4.2597   YZ=              2.5719
 Traceless Quadrupole moment (field-independent basis, Debye-Ang):
   XX=            -12.8644   YY=             11.8351   ZZ=              1.0293
   XY=             -3.3146   XZ=             -4.2597   YZ=              2.5719
 Octapole moment (field-independent basis, Debye-Ang**2):
  XXX=             58.6678  YYY=             11.4833  ZZZ=             -2.7428  XYY=             14.0210
  XXY=            -20.6220  XXZ=            -56.5988  XZZ=              3.4029  YZZ=             -1.2276
  YYZ=             -0.2128  XYZ=             -0.9757
 Hexadecapole moment (field-independent basis, Debye-Ang**3):
 XXXX=         -12515.3221 YYYY=          -3279.7595 ZZZZ=           -525.0263 XXXY=            602.2355
 XXXZ=           -210.5988 YYYX=           -127.6480 YYYZ=            -98.6803 ZZZX=              6.3542
 ZZZY=            -28.9187 XXYY=          -2599.4496 XXZZ=          -2114.1434 YYZZ=           -686.8551
 XXYZ=             60.2346 YYXZ=             31.6782 ZZXY=              7.2798
 N-N= 2.745591399183D+03 E-N=-8.719506812718D+03  KE= 1.373860107651D+03
 1\1\GINC-NODE043\FOpt\RM06\LANL2DZ\C19H22F2N4O3\SUPERCOMPUTO1\21-Jul-2
 020\0\\#opt M06/lanl2dz integral=ultrafine geom=connectivity\\Title Ca
 rd Required\\0,1\F,0.5571542425,1.8385617433,-0.9990411414\F,1.7745445
 864,-2.5262729619,0.5834478694\O,-3.3186125775,-2.5488374935,0.6192147
 739\O,-5.8002768329,-1.8444024702,-0.3768703026\O,-6.1947886128,0.3938
 958538,-0.3982786971\N,-2.178715472,1.2951534668,-0.3883738068\N,2.560
 4180036,0.0359485765,-0.320802029\N,5.3113011867,0.2472953161,0.395996
 272\N,-0.8016701432,-3.2589262202,0.7401956621\C,-1.8723761314,2.72107
 10979,-0.468692946\C,-1.2626527602,3.3875801866,0.7443371156\C,-2.7032
 668488,3.6828853956,0.3608429179\C,-1.1675798148,0.3239292282,-0.21381
 75106\C,4.3241509231,1.1778857666,0.960374672\C,4.7561881268,-1.059016
 0351,0.0054717844\C,3.0989405564,1.3532687323,0.03628181\C,3.541996348
 4,-0.8780417302,-0.9215330448\C,1.228911768,-0.2958235341,-0.162110729
 3\C,-3.4840234752,0.9110268381,-0.4205375322\C,-1.5543756434,-1.006043
 8998,0.1270047966\C,0.186120719,0.6287998861,-0.4007268578\C,-0.526991
 4007,-1.977769012,0.3644926733\C,-3.9260864818,-0.3681196402,-0.185543
 6503\C,0.8085684863,-1.5717267387,0.236366264\C,-2.9711576576,-1.40097
 03978,0.2158248905\C,4.984413057,2.5229826246,1.2365295751\C,5.8366418
 698,-1.8970065579,-0.6640478181\C,-5.3821884711,-0.5477027202,-0.31133
 98139\H,-1.5299795208,3.0488631966,-1.4431023538\H,-0.4979971776,4.135
 0685973,0.5703184234\H,-1.1027475018,2.7652577231,1.6200624363\H,-3.48
 05875512,3.2752821633,0.9996469717\H,-2.9437776023,4.6415810177,-0.083
 3768264\H,3.9636506854,0.7352875678,1.9015754229\H,4.4023333991,-1.556
 1146586,0.9205006874\H,2.329857413,1.9410863802,0.5468687879\H,3.40411
 74441,1.9069734038,-0.8707222888\H,3.893066843,-0.4380811732,-1.874846
 5862\H,3.0727170825,-1.8390798967,-1.1441532564\H,-4.2123381087,1.6881
 4389,-0.6343066812\H,5.8695843548,0.6726566517,-0.3492649055\H,5.84025
 39075,2.3915241644,1.9054017729\H,5.3467984678,2.9719109444,0.29989567
 58\H,4.2810259989,3.226286239,1.6967134838\H,5.4624396829,-2.893605949
 1,-0.922716908\H,6.1807549412,-1.4129899457,-1.5904237215\H,6.69666677
 98,-2.0059619308,0.0036688637\H,-1.7827327961,-3.5096132833,0.86634425
 69\H,-0.0453378021,-3.9076373027,0.8987699671\H,-6.7787474902,-1.87149
 91001,-0.461266419\\Version=ES64L-G09RevD.01\State=1-A\HF=-1380.604071
 7\RMSD=8.770e-09\RMSF=6.393e-06\Dipole=1.6022495,1.4518758,-0.4448142\
 Quadrupole=-9.280459,8.7049198,0.5755392,-2.8514155,-3.4817715,1.76995
 38\PG=C01 [X(C19H22F2N4O3)]\\@


 THE HURRIEDER I GO, THE BEHINDER I GET.
 Job cpu time:       0 days  6 hours 41 minutes 15.0 seconds.
 File lengths (MBytes):  RWF=     58 Int=      0 D2E=      0 Chk=      9 Scr=      1
 Normal termination of Gaussian 09 at Tue Jul 21 17:50:25 2020.
