 Entering Gaussian System, Link 0=g09
 Input=acido_oxolinico.gjf
 Output=acido_oxolinico.log
 Initial command:
 /usr/local/cluster_programs/g09/l1.exe "/tmp/scratch/64748.prometeo/Gau-13974.inp" -scrdir="/tmp/scratch/64748.prometeo/"
 Entering Link 1 = /usr/local/cluster_programs/g09/l1.exe PID=     13975.
  
 Copyright (c) 1988,1990,1992,1993,1995,1998,2003,2009,2013,
            Gaussian, Inc.  All Rights Reserved.
  
 This is part of the Gaussian(R) 09 program.  It is based on
 the Gaussian(R) 03 system (copyright 2003, Gaussian, Inc.),
 the Gaussian(R) 98 system (copyright 1998, Gaussian, Inc.),
 the Gaussian(R) 94 system (copyright 1995, Gaussian, Inc.),
 the Gaussian 92(TM) system (copyright 1992, Gaussian, Inc.),
 the Gaussian 90(TM) system (copyright 1990, Gaussian, Inc.),
 the Gaussian 88(TM) system (copyright 1988, Gaussian, Inc.),
 the Gaussian 86(TM) system (copyright 1986, Carnegie Mellon
 University), and the Gaussian 82(TM) system (copyright 1983,
 Carnegie Mellon University). Gaussian is a federally registered
 trademark of Gaussian, Inc.
  
 This software contains proprietary and confidential information,
 including trade secrets, belonging to Gaussian, Inc.
  
 This software is provided under written license and may be
 used, copied, transmitted, or stored only in accord with that
 written license.
  
 The following legend is applicable only to US Government
 contracts under FAR:
  
                    RESTRICTED RIGHTS LEGEND
  
 Use, reproduction and disclosure by the US Government is
 subject to restrictions as set forth in subparagraphs (a)
 and (c) of the Commercial Computer Software - Restricted
 Rights clause in FAR 52.227-19.
  
 Gaussian, Inc.
 340 Quinnipiac St., Bldg. 40, Wallingford CT 06492
  
  
 ---------------------------------------------------------------
 Warning -- This program may not be used in any manner that
 competes with the business of Gaussian, Inc. or will provide
 assistance to any competitor of Gaussian, Inc.  The licensee
 of this program is prohibited from giving any competitor of
 Gaussian, Inc. access to this program.  By using this program,
 the user acknowledges that Gaussian, Inc. is engaged in the
 business of creating and licensing software in the field of
 computational chemistry and represents and warrants to the
 licensee that it is not a competitor of Gaussian, Inc. and that
 it will not use this program in any manner prohibited above.
 ---------------------------------------------------------------
  

 Cite this work as:
 Gaussian 09, Revision D.01,
 M. J. Frisch, G. W. Trucks, H. B. Schlegel, G. E. Scuseria, 
 M. A. Robb, J. R. Cheeseman, G. Scalmani, V. Barone, B. Mennucci, 
 G. A. Petersson, H. Nakatsuji, M. Caricato, X. Li, H. P. Hratchian, 
 A. F. Izmaylov, J. Bloino, G. Zheng, J. L. Sonnenberg, M. Hada, 
 M. Ehara, K. Toyota, R. Fukuda, J. Hasegawa, M. Ishida, T. Nakajima, 
 Y. Honda, O. Kitao, H. Nakai, T. Vreven, J. A. Montgomery, Jr., 
 J. E. Peralta, F. Ogliaro, M. Bearpark, J. J. Heyd, E. Brothers, 
 K. N. Kudin, V. N. Staroverov, T. Keith, R. Kobayashi, J. Normand, 
 K. Raghavachari, A. Rendell, J. C. Burant, S. S. Iyengar, J. Tomasi, 
 M. Cossi, N. Rega, J. M. Millam, M. Klene, J. E. Knox, J. B. Cross, 
 V. Bakken, C. Adamo, J. Jaramillo, R. Gomperts, R. E. Stratmann, 
 O. Yazyev, A. J. Austin, R. Cammi, C. Pomelli, J. W. Ochterski, 
 R. L. Martin, K. Morokuma, V. G. Zakrzewski, G. A. Voth, 
 P. Salvador, J. J. Dannenberg, S. Dapprich, A. D. Daniels, 
 O. Farkas, J. B. Foresman, J. V. Ortiz, J. Cioslowski, 
 and D. J. Fox, Gaussian, Inc., Wallingford CT, 2013.
 
 ******************************************
 Gaussian 09:  ES64L-G09RevD.01 24-Apr-2013
                22-Aug-2020 
 ******************************************
 %nprocshared=20
 Will use up to   20 processors via shared memory.
 -----------------------------------------------------
 #opt M06/lanl2dz integral=ultrafine geom=connectivity
 -----------------------------------------------------
 1/14=-1,18=20,19=15,26=4,38=1,57=2/1,3;
 2/9=110,12=2,17=6,18=5,40=1/2;
 3/5=6,6=3,11=2,16=1,25=1,30=1,71=1,74=-54,75=-5/1,2,3;
 4//1;
 5/5=2,38=5/2;
 6/7=2,8=2,9=2,10=2,28=1/1;
 7//1,2,3,16;
 1/14=-1,18=20,19=15,26=4/3(2);
 2/9=110/2;
 99//99;
 2/9=110/2;
 3/5=6,6=3,11=2,16=1,25=1,30=1,71=1,74=-54,75=-5/1,2,3;
 4/5=5,16=3,69=1/1;
 5/5=2,38=5/2;
 7//1,2,3,16;
 1/14=-1,18=20,19=15,26=4/3(-5);
 2/9=110/2;
 6/7=2,8=2,9=2,10=2,19=2,28=1/1;
 99/9=1/99;
 -------------------
 Title Card Required
 -------------------
 Symbolic Z-matrix:
 Charge =  0 Multiplicity = 1
 O                     4.07622   0.56419  -0.16591 
 O                     3.72831  -1.77096   0.13828 
 O                    -1.34601  -2.56878   0.23876 
 O                    -4.00555  -1.99794   0.12687 
 O                    -4.62414   0.17819  -0.17089 
 N                    -0.76324   1.49952  -0.29517 
 C                     0.35581   0.65496  -0.17736 
 C                     0.1424   -0.72769   0.00165 
 C                     1.67536   1.16664  -0.24295 
 C                    -0.61476   2.97687  -0.41686 
 C                     2.71239   0.27501  -0.12928 
 C                     2.49977  -1.09801   0.04915 
 C                     1.23543  -1.61241   0.11627 
 C                    -2.01069   0.96598  -0.23622 
 C                    -1.21614  -1.33966   0.07529 
 C                    -2.29028  -0.36174  -0.06594 
 C                     4.77104  -0.73885  -0.00513 
 C                    -0.34522   3.64395   0.94501 
 C                    -3.72796  -0.66671  -0.04632 
 H                     1.88329   2.21607  -0.37583 
 H                     0.18429   3.18832  -1.13187 
 H                    -1.54862   3.35097  -0.84366 
 H                     1.02104  -2.663     0.25154 
 H                    -2.84532   1.65002  -0.33694 
 H                     5.37932  -0.70593   0.89975 
 H                     5.36133  -0.93742  -0.90091 
 H                    -1.17804   3.45093   1.62756 
 H                     0.57096   3.25429   1.39678 
 H                    -0.24098   4.72611   0.81348 
 H                    -4.99824  -2.09473   0.12559 
 

 GradGradGradGradGradGradGradGradGradGradGradGradGradGradGradGradGradGrad
 Berny optimization.
 Initialization pass.
                           ----------------------------
                           !    Initial Parameters    !
                           ! (Angstroms and Degrees)  !
 --------------------------                            --------------------------
 ! Name  Definition              Value          Derivative Info.                !
 --------------------------------------------------------------------------------
 ! R1    R(1,11)                 1.3946         estimate D2E/DX2                !
 ! R2    R(1,17)                 1.4854         estimate D2E/DX2                !
 ! R3    R(2,12)                 1.4036         estimate D2E/DX2                !
 ! R4    R(2,17)                 1.4741         estimate D2E/DX2                !
 ! R5    R(3,15)                 1.2467         estimate D2E/DX2                !
 ! R6    R(4,19)                 1.3709         estimate D2E/DX2                !
 ! R7    R(4,30)                 0.9974         estimate D2E/DX2                !
 ! R8    R(5,19)                 1.238          estimate D2E/DX2                !
 ! R9    R(6,7)                  1.4069         estimate D2E/DX2                !
 ! R10   R(6,10)                 1.4898         estimate D2E/DX2                !
 ! R11   R(6,14)                 1.358          estimate D2E/DX2                !
 ! R12   R(7,8)                  1.4104         estimate D2E/DX2                !
 ! R13   R(7,9)                  1.4168         estimate D2E/DX2                !
 ! R14   R(8,13)                 1.4109         estimate D2E/DX2                !
 ! R15   R(8,15)                 1.4918         estimate D2E/DX2                !
 ! R16   R(9,11)                 1.3724         estimate D2E/DX2                !
 ! R17   R(9,20)                 1.078          estimate D2E/DX2                !
 ! R18   R(10,18)                1.5402         estimate D2E/DX2                !
 ! R19   R(10,21)                1.0929         estimate D2E/DX2                !
 ! R20   R(10,22)                1.0928         estimate D2E/DX2                !
 ! R21   R(11,12)                1.4008         estimate D2E/DX2                !
 ! R22   R(12,13)                1.3666         estimate D2E/DX2                !
 ! R23   R(13,23)                1.0807         estimate D2E/DX2                !
 ! R24   R(14,16)                1.3675         estimate D2E/DX2                !
 ! R25   R(14,24)                1.0838         estimate D2E/DX2                !
 ! R26   R(15,16)                1.4595         estimate D2E/DX2                !
 ! R27   R(16,19)                1.4698         estimate D2E/DX2                !
 ! R28   R(17,25)                1.0908         estimate D2E/DX2                !
 ! R29   R(17,26)                1.091          estimate D2E/DX2                !
 ! R30   R(18,27)                1.0939         estimate D2E/DX2                !
 ! R31   R(18,28)                1.0933         estimate D2E/DX2                !
 ! R32   R(18,29)                1.0951         estimate D2E/DX2                !
 ! A1    A(11,1,17)            105.8241         estimate D2E/DX2                !
 ! A2    A(12,2,17)            106.0973         estimate D2E/DX2                !
 ! A3    A(19,4,30)            107.1944         estimate D2E/DX2                !
 ! A4    A(7,6,10)             121.5236         estimate D2E/DX2                !
 ! A5    A(7,6,14)             119.416          estimate D2E/DX2                !
 ! A6    A(10,6,14)            118.9924         estimate D2E/DX2                !
 ! A7    A(6,7,8)              118.6035         estimate D2E/DX2                !
 ! A8    A(6,7,9)              121.3402         estimate D2E/DX2                !
 ! A9    A(8,7,9)              120.0553         estimate D2E/DX2                !
 ! A10   A(7,8,13)             120.5181         estimate D2E/DX2                !
 ! A11   A(7,8,15)             123.1057         estimate D2E/DX2                !
 ! A12   A(13,8,15)            116.3758         estimate D2E/DX2                !
 ! A13   A(7,9,11)             117.7301         estimate D2E/DX2                !
 ! A14   A(7,9,20)             122.4733         estimate D2E/DX2                !
 ! A15   A(11,9,20)            119.7965         estimate D2E/DX2                !
 ! A16   A(6,10,18)            112.0062         estimate D2E/DX2                !
 ! A17   A(6,10,21)            108.5526         estimate D2E/DX2                !
 ! A18   A(6,10,22)            106.6314         estimate D2E/DX2                !
 ! A19   A(18,10,21)           111.5135         estimate D2E/DX2                !
 ! A20   A(18,10,22)           110.2804         estimate D2E/DX2                !
 ! A21   A(21,10,22)           107.6403         estimate D2E/DX2                !
 ! A22   A(1,11,9)             127.0184         estimate D2E/DX2                !
 ! A23   A(1,11,12)            110.7948         estimate D2E/DX2                !
 ! A24   A(9,11,12)            122.1866         estimate D2E/DX2                !
 ! A25   A(2,12,11)            110.192          estimate D2E/DX2                !
 ! A26   A(2,12,13)            128.7695         estimate D2E/DX2                !
 ! A27   A(11,12,13)           121.0384         estimate D2E/DX2                !
 ! A28   A(8,13,12)            118.4713         estimate D2E/DX2                !
 ! A29   A(8,13,23)            117.7786         estimate D2E/DX2                !
 ! A30   A(12,13,23)           123.75           estimate D2E/DX2                !
 ! A31   A(6,14,16)            125.0759         estimate D2E/DX2                !
 ! A32   A(6,14,24)            117.0895         estimate D2E/DX2                !
 ! A33   A(16,14,24)           117.834          estimate D2E/DX2                !
 ! A34   A(3,15,8)             120.3814         estimate D2E/DX2                !
 ! A35   A(3,15,16)            126.6278         estimate D2E/DX2                !
 ! A36   A(8,15,16)            112.9905         estimate D2E/DX2                !
 ! A37   A(14,16,15)           120.8069         estimate D2E/DX2                !
 ! A38   A(14,16,19)           113.7726         estimate D2E/DX2                !
 ! A39   A(15,16,19)           125.4204         estimate D2E/DX2                !
 ! A40   A(1,17,2)             107.0878         estimate D2E/DX2                !
 ! A41   A(1,17,25)            108.9138         estimate D2E/DX2                !
 ! A42   A(1,17,26)            108.8965         estimate D2E/DX2                !
 ! A43   A(2,17,25)            109.5646         estimate D2E/DX2                !
 ! A44   A(2,17,26)            109.5823         estimate D2E/DX2                !
 ! A45   A(25,17,26)           112.6368         estimate D2E/DX2                !
 ! A46   A(10,18,27)           110.0004         estimate D2E/DX2                !
 ! A47   A(10,18,28)           110.9564         estimate D2E/DX2                !
 ! A48   A(10,18,29)           109.7826         estimate D2E/DX2                !
 ! A49   A(27,18,28)           108.4967         estimate D2E/DX2                !
 ! A50   A(27,18,29)           108.7696         estimate D2E/DX2                !
 ! A51   A(28,18,29)           108.7874         estimate D2E/DX2                !
 ! A52   A(4,19,5)             121.9306         estimate D2E/DX2                !
 ! A53   A(4,19,16)            113.6565         estimate D2E/DX2                !
 ! A54   A(5,19,16)            124.4128         estimate D2E/DX2                !
 ! D1    D(17,1,11,9)         -179.7925         estimate D2E/DX2                !
 ! D2    D(17,1,11,12)           0.366          estimate D2E/DX2                !
 ! D3    D(11,1,17,2)           -0.608          estimate D2E/DX2                !
 ! D4    D(11,1,17,25)        -119.0104         estimate D2E/DX2                !
 ! D5    D(11,1,17,26)         117.8061         estimate D2E/DX2                !
 ! D6    D(17,2,12,11)          -0.4168         estimate D2E/DX2                !
 ! D7    D(17,2,12,13)         179.6765         estimate D2E/DX2                !
 ! D8    D(12,2,17,1)            0.6263         estimate D2E/DX2                !
 ! D9    D(12,2,17,25)         118.6049         estimate D2E/DX2                !
 ! D10   D(12,2,17,26)        -117.3413         estimate D2E/DX2                !
 ! D11   D(30,4,19,5)            0.0343         estimate D2E/DX2                !
 ! D12   D(30,4,19,16)         179.9804         estimate D2E/DX2                !
 ! D13   D(10,6,7,8)           176.8615         estimate D2E/DX2                !
 ! D14   D(10,6,7,9)            -3.5018         estimate D2E/DX2                !
 ! D15   D(14,6,7,8)            -0.108          estimate D2E/DX2                !
 ! D16   D(14,6,7,9)           179.5287         estimate D2E/DX2                !
 ! D17   D(7,6,10,18)          -79.1211         estimate D2E/DX2                !
 ! D18   D(7,6,10,21)           44.4424         estimate D2E/DX2                !
 ! D19   D(7,6,10,22)          160.1552         estimate D2E/DX2                !
 ! D20   D(14,6,10,18)          97.861          estimate D2E/DX2                !
 ! D21   D(14,6,10,21)        -138.5756         estimate D2E/DX2                !
 ! D22   D(14,6,10,22)         -22.8628         estimate D2E/DX2                !
 ! D23   D(7,6,14,16)            0.0628         estimate D2E/DX2                !
 ! D24   D(7,6,14,24)         -179.6544         estimate D2E/DX2                !
 ! D25   D(10,6,14,16)        -176.9839         estimate D2E/DX2                !
 ! D26   D(10,6,14,24)           3.2989         estimate D2E/DX2                !
 ! D27   D(6,7,8,13)           179.614          estimate D2E/DX2                !
 ! D28   D(6,7,8,15)            -0.1344         estimate D2E/DX2                !
 ! D29   D(9,7,8,13)            -0.0276         estimate D2E/DX2                !
 ! D30   D(9,7,8,15)          -179.7759         estimate D2E/DX2                !
 ! D31   D(6,7,9,11)          -179.5192         estimate D2E/DX2                !
 ! D32   D(6,7,9,20)             0.5539         estimate D2E/DX2                !
 ! D33   D(8,7,9,11)             0.1123         estimate D2E/DX2                !
 ! D34   D(8,7,9,20)          -179.8146         estimate D2E/DX2                !
 ! D35   D(7,8,13,12)           -0.0272         estimate D2E/DX2                !
 ! D36   D(7,8,13,23)         -179.9554         estimate D2E/DX2                !
 ! D37   D(15,8,13,12)         179.7375         estimate D2E/DX2                !
 ! D38   D(15,8,13,23)          -0.1906         estimate D2E/DX2                !
 ! D39   D(7,8,15,3)          -179.7847         estimate D2E/DX2                !
 ! D40   D(7,8,15,16)            0.3882         estimate D2E/DX2                !
 ! D41   D(13,8,15,3)            0.4573         estimate D2E/DX2                !
 ! D42   D(13,8,15,16)        -179.3699         estimate D2E/DX2                !
 ! D43   D(7,9,11,1)          -179.9719         estimate D2E/DX2                !
 ! D44   D(7,9,11,12)           -0.1469         estimate D2E/DX2                !
 ! D45   D(20,9,11,1)           -0.0429         estimate D2E/DX2                !
 ! D46   D(20,9,11,12)         179.782          estimate D2E/DX2                !
 ! D47   D(6,10,18,27)         -60.4272         estimate D2E/DX2                !
 ! D48   D(6,10,18,28)          59.634          estimate D2E/DX2                !
 ! D49   D(6,10,18,29)         179.9158         estimate D2E/DX2                !
 ! D50   D(21,10,18,27)        177.6897         estimate D2E/DX2                !
 ! D51   D(21,10,18,28)        -62.249          estimate D2E/DX2                !
 ! D52   D(21,10,18,29)         58.0328         estimate D2E/DX2                !
 ! D53   D(22,10,18,27)         58.157          estimate D2E/DX2                !
 ! D54   D(22,10,18,28)        178.2182         estimate D2E/DX2                !
 ! D55   D(22,10,18,29)        -61.5            estimate D2E/DX2                !
 ! D56   D(1,11,12,2)            0.0308         estimate D2E/DX2                !
 ! D57   D(1,11,12,13)         179.9459         estimate D2E/DX2                !
 ! D58   D(9,11,12,2)         -179.8198         estimate D2E/DX2                !
 ! D59   D(9,11,12,13)           0.0953         estimate D2E/DX2                !
 ! D60   D(2,12,13,8)          179.8936         estimate D2E/DX2                !
 ! D61   D(2,12,13,23)          -0.1829         estimate D2E/DX2                !
 ! D62   D(11,12,13,8)          -0.0042         estimate D2E/DX2                !
 ! D63   D(11,12,13,23)        179.9193         estimate D2E/DX2                !
 ! D64   D(6,14,16,15)           0.2311         estimate D2E/DX2                !
 ! D65   D(6,14,16,19)        -179.6614         estimate D2E/DX2                !
 ! D66   D(24,14,16,15)        179.9463         estimate D2E/DX2                !
 ! D67   D(24,14,16,19)          0.0539         estimate D2E/DX2                !
 ! D68   D(3,15,16,14)         179.759          estimate D2E/DX2                !
 ! D69   D(3,15,16,19)          -0.3618         estimate D2E/DX2                !
 ! D70   D(8,15,16,14)          -0.4268         estimate D2E/DX2                !
 ! D71   D(8,15,16,19)         179.4524         estimate D2E/DX2                !
 ! D72   D(14,16,19,4)        -179.8912         estimate D2E/DX2                !
 ! D73   D(14,16,19,5)           0.0533         estimate D2E/DX2                !
 ! D74   D(15,16,19,4)           0.2222         estimate D2E/DX2                !
 ! D75   D(15,16,19,5)        -179.8333         estimate D2E/DX2                !
 --------------------------------------------------------------------------------
 Trust Radius=3.00D-01 FncErr=1.00D-07 GrdErr=1.00D-06
 Number of steps in this run=    171 maximum allowed number of steps=    180.
 GradGradGradGradGradGradGradGradGradGradGradGradGradGradGradGradGradGrad

                          Input orientation:                          
 ---------------------------------------------------------------------
 Center     Atomic      Atomic             Coordinates (Angstroms)
 Number     Number       Type             X           Y           Z
 ---------------------------------------------------------------------
      1          8           0        4.076224    0.564188   -0.165914
      2          8           0        3.728312   -1.770958    0.138282
      3          8           0       -1.346009   -2.568778    0.238764
      4          8           0       -4.005550   -1.997940    0.126865
      5          8           0       -4.624144    0.178194   -0.170887
      6          7           0       -0.763242    1.499518   -0.295166
      7          6           0        0.355808    0.654961   -0.177361
      8          6           0        0.142402   -0.727689    0.001654
      9          6           0        1.675356    1.166644   -0.242949
     10          6           0       -0.614764    2.976868   -0.416862
     11          6           0        2.712394    0.275005   -0.129282
     12          6           0        2.499773   -1.098015    0.049154
     13          6           0        1.235432   -1.612406    0.116266
     14          6           0       -2.010687    0.965981   -0.236224
     15          6           0       -1.216139   -1.339659    0.075286
     16          6           0       -2.290275   -0.361735   -0.065936
     17          6           0        4.771041   -0.738852   -0.005132
     18          6           0       -0.345216    3.643952    0.945005
     19          6           0       -3.727956   -0.666706   -0.046318
     20          1           0        1.883285    2.216070   -0.375828
     21          1           0        0.184285    3.188320   -1.131872
     22          1           0       -1.548620    3.350967   -0.843663
     23          1           0        1.021038   -2.663001    0.251535
     24          1           0       -2.845320    1.650023   -0.336940
     25          1           0        5.379320   -0.705928    0.899748
     26          1           0        5.361326   -0.937417   -0.900911
     27          1           0       -1.178038    3.450931    1.627556
     28          1           0        0.570956    3.254293    1.396780
     29          1           0       -0.240975    4.726107    0.813482
     30          1           0       -4.998238   -2.094727    0.125591
 ---------------------------------------------------------------------
                    Distance matrix (angstroms):
                    1          2          3          4          5
     1  O    0.000000
     2  O    2.380438   0.000000
     3  O    6.275337   5.137640   0.000000
     4  O    8.483236   7.737201   2.722414   0.000000
     5  O    8.708928   8.582441   4.296491   2.281858   0.000000
     6  N    4.930718   5.572966   4.144361   4.787785   4.082635
     7  C    3.721541   4.166353   3.669037   5.113891   5.002726
     8  C    4.143909   3.737088   2.379327   4.339899   4.854931
     9  C    2.476501   3.604091   4.828465   6.513374   6.376984
    10  C    5.281039   6.458510   5.631941   6.044980   4.895734
    11  C    1.394633   2.299923   4.969225   7.096666   7.337295
    12  C    2.300950   1.403604   4.121788   6.567734   7.240671
    13  C    3.589887   2.498014   2.755629   5.255154   6.133786
    14  C    6.100563   6.369239   3.627938   3.591120   2.730391
    15  C    5.629557   4.963626   1.246726   2.866498   3.738847
    16  C    6.434255   6.184740   2.419818   2.378341   2.397808
    17  C    1.485441   1.474142   6.389555   8.867428   9.441290
    18  C    5.501656   6.823905   6.332328   6.774832   5.618355
    19  C    7.901559   7.539853   3.061506   1.370852   1.237952
    20  H    2.753499   4.423214   5.805242   7.258716   6.822138
    21  H    4.792320   6.226384   6.112661   6.785015   5.753724
    22  H    6.313822   7.419187   6.021302   5.965671   4.469672
    23  H    4.463538   2.852700   2.368956   5.071926   6.333949
    24  H    7.008285   7.425738   4.514161   3.856019   2.314750
    25  H    2.108765   2.107118   7.009790   9.504863  10.099367
    26  H    2.108679   2.107474   6.996323   9.482584  10.074082
    27  H    6.257563   7.318356   6.180118   6.319580   5.081422
    28  H    4.686745   6.066783   6.238903   7.081175   6.237710
    29  H    6.076100   7.643493   7.400456   7.736684   6.392548
    30  H    9.460479   8.732563   3.684604   0.997396   2.322502
                    6          7          8          9         10
     6  N    0.000000
     7  C    1.406921   0.000000
     8  C    2.422549   1.410429   0.000000
     9  C    2.461766   1.416802   2.449138   0.000000
    10  C    1.489771   2.527968   3.804234   2.924347   0.000000
    11  C    3.688766   2.387504   2.761774   1.372366   4.295666
    12  C    4.184854   2.778636   2.386754   2.427688   5.149969
    13  C    3.721296   2.449675   1.410877   2.836492   4.976835
    14  C    1.358033   2.387571   2.749708   3.691507   2.454567
    15  C    2.898841   2.552128   1.491832   3.839736   4.385917
    16  C    2.418396   2.836872   2.460977   4.253646   3.751900
    17  C    5.976848   4.633213   4.628657   3.642902   6.556142
    18  C    2.512243   3.268824   4.498770   3.410425   1.540240
    19  C    3.680215   4.294311   3.871136   5.709257   4.806756
    20  H    2.743002   2.193088   3.440768   1.078047   2.611656
    21  H    2.109487   2.712641   4.076980   2.664705   1.092900
    22  H    2.084594   3.367381   4.495503   3.940323   1.092793
    23  H    4.561699   3.411064   2.140064   3.916481   5.910222
    24  H    2.087929   3.356015   3.833359   4.547417   2.596591
    25  H    6.634974   5.314871   5.313413   4.304838   7.157199
    26  H    6.619359   5.302302   5.300545   4.294923   7.160278
    27  H    2.770727   3.664404   4.674183   4.105924   2.172938
    28  H    2.778849   3.046430   4.241016   2.875185   2.184535
    29  H    3.451484   4.232275   5.527199   4.178295   2.171014
    30  H    5.570532   6.026473   5.320746   7.437017   6.725338
                   11         12         13         14         15
    11  C    0.000000
    12  C    1.400797   0.000000
    13  C    2.409156   1.366624   0.000000
    14  C    4.774555   4.968478   4.160483   0.000000
    15  C    4.252336   3.723852   2.467037   2.458520   0.000000
    16  C    5.043426   4.847671   3.745395   1.367478   1.459468
    17  C    2.298118   2.300131   3.643949   6.996549   6.017787
    18  C    4.674706   5.602032   5.551086   3.367584   5.133351
    19  C    6.509363   6.243377   5.055295   2.377129   2.603244
    20  H    2.125074   3.397621   3.913962   4.092094   4.738475
    21  H    3.985464   5.012881   5.070476   3.249443   4.890911
    22  H    5.303595   6.081122   5.771263   2.504126   4.791345
    23  H    3.411391   2.162590   1.080746   4.753817   2.605237
    24  H    5.729047   6.022524   5.244175   1.083822   3.429630
    25  H    3.022189   3.028041   4.313624   7.661456   6.676933
    26  H    3.013672   3.019421   4.302704   7.642729   6.661667
    27  H    5.320568   6.058924   5.809149   3.215891   5.035945
    28  H    3.973761   4.947627   5.076022   3.816799   5.103376
    29  H    5.424343   6.481998   6.545429   4.286293   6.187843
    30  H    8.070591   7.564354   6.252309   4.292354   3.857062
                   16         17         18         19         20
    16  C    0.000000
    17  C    7.071640   0.000000
    18  C    4.566266   6.803515   0.000000
    19  C    1.469802   8.499403   5.568431   0.000000
    20  H    4.915253   4.148266   2.957983   6.317040   0.000000
    21  H    4.456743   6.142520   2.191207   5.598686   2.098446
    22  H    3.865109   7.574158   2.175627   4.639716   3.644836
    23  H    4.044924   4.222647   6.490393   5.160122   4.994235
    24  H    2.104445   7.989104   3.445237   2.496145   4.762523
    25  H    7.737810   1.090823   7.189841   9.156367   4.731535
    26  H    7.718523   1.091002   7.547249   9.133382   4.724083
    27  H    4.317570   7.457311   1.093949   5.124341   3.861363
    28  H    4.837545   5.962489   1.093300   5.994782   2.437674
    29  H    5.555101   7.460309   1.095091   6.479253   3.496745
    30  H    3.220715   9.863787   7.433336   1.918961   8.135708
                   21         22         23         24         25
    21  H    0.000000
    22  H    1.764222   0.000000
    23  H    6.070579   6.631019   0.000000
    24  H    3.489524   2.198047   5.822130   0.000000
    25  H    6.803017   8.215487   4.821300   8.644340   0.000000
    26  H    6.623957   8.132704   4.810808   8.623337   1.815567
    27  H    3.088581   2.500849   6.641501   3.143619   7.797956
    28  H    2.558896   3.085698   6.043884   4.153361   6.249060
    29  H    2.515957   2.519340   7.517139   4.191465   7.816787
    30  H    7.506687   6.518811   6.047353   4.344208  10.498657
                   26         27         28         29         30
    26  H    0.000000
    27  H    8.271277   0.000000
    28  H    6.767382   1.775079   0.000000
    29  H    8.148646   1.779572   1.779243   0.000000
    30  H   10.474428   6.899576   7.825846   8.344371   0.000000
 Stoichiometry    C13H11NO5
 Framework group  C1[X(C13H11NO5)]
 Deg. of freedom    84
 Full point group                 C1      NOp   1
 Largest Abelian subgroup         C1      NOp   1
 Largest concise Abelian subgroup C1      NOp   1
                         Standard orientation:                         
 ---------------------------------------------------------------------
 Center     Atomic      Atomic             Coordinates (Angstroms)
 Number     Number       Type             X           Y           Z
 ---------------------------------------------------------------------
      1          8           0        4.076224    0.564188   -0.165914
      2          8           0        3.728312   -1.770958    0.138282
      3          8           0       -1.346009   -2.568778    0.238764
      4          8           0       -4.005550   -1.997940    0.126865
      5          8           0       -4.624144    0.178194   -0.170887
      6          7           0       -0.763242    1.499518   -0.295166
      7          6           0        0.355808    0.654961   -0.177361
      8          6           0        0.142402   -0.727689    0.001654
      9          6           0        1.675356    1.166644   -0.242949
     10          6           0       -0.614764    2.976868   -0.416862
     11          6           0        2.712394    0.275005   -0.129282
     12          6           0        2.499773   -1.098015    0.049154
     13          6           0        1.235432   -1.612406    0.116266
     14          6           0       -2.010687    0.965981   -0.236224
     15          6           0       -1.216139   -1.339659    0.075286
     16          6           0       -2.290275   -0.361735   -0.065936
     17          6           0        4.771041   -0.738852   -0.005132
     18          6           0       -0.345216    3.643952    0.945005
     19          6           0       -3.727956   -0.666706   -0.046318
     20          1           0        1.883285    2.216070   -0.375828
     21          1           0        0.184285    3.188320   -1.131872
     22          1           0       -1.548620    3.350967   -0.843663
     23          1           0        1.021038   -2.663001    0.251535
     24          1           0       -2.845320    1.650023   -0.336940
     25          1           0        5.379320   -0.705928    0.899748
     26          1           0        5.361326   -0.937417   -0.900911
     27          1           0       -1.178038    3.450931    1.627556
     28          1           0        0.570956    3.254293    1.396780
     29          1           0       -0.240975    4.726107    0.813482
     30          1           0       -4.998238   -2.094727    0.125591
 ---------------------------------------------------------------------
 Rotational constants (GHZ):      0.6673171      0.2472156      0.1840580
 Standard basis: LANL2DZ (5D, 7F)
 There are   193 symmetry adapted cartesian basis functions of A   symmetry.
 There are   193 symmetry adapted basis functions of A   symmetry.
   193 basis functions,   519 primitive gaussians,   193 cartesian basis functions
    68 alpha electrons       68 beta electrons
       nuclear repulsion energy      1403.6588078618 Hartrees.
 NAtoms=   30 NActive=   30 NUniq=   30 SFac= 1.00D+00 NAtFMM=   60 NAOKFM=F Big=F
 Integral buffers will be    131072 words long.
 Raffenetti 2 integral format.
 Two-electron integral symmetry is turned on.
 One-electron integrals computed using PRISM.
 PrsmSu:  requested number of processors reduced to:   9 ShMem   1 Linda.
   1 Symmetry operations used in ECPInt.
 ECPInt:  NShTT=    6903 NPrTT=   54850 LenC2=    6443 LenP2D=   29857.
 LDataN:  DoStor=T MaxTD1= 2 Len=   12
 Number of processors reduced to  11 by ecpmxn.
 NBasis=   193 RedAO= T EigKep=  2.39D-04  NBF=   193
 NBsUse=   193 1.00D-06 EigRej= -1.00D+00 NBFU=   193
 ExpMin= 1.15D-01 ExpMax= 7.82D+03 ExpMxC= 2.73D+02 IAcc=3 IRadAn=         5 AccDes= 0.00D+00
 Harris functional with IExCor= 1009 and IRadAn=       5 diagonalized for initial guess.
 HarFok:  IExCor= 1009 AccDes= 0.00D+00 IRadAn=         5 IDoV= 1 UseB2=F ITyADJ=14
 ICtDFT=  3500011 ScaDFX=  1.000000  1.000000  1.000000  1.000000
 FoFCou: FMM=F IPFlag=           0 FMFlag=      100000 FMFlg1=           0
         NFxFlg=           0 DoJE=T BraDBF=F KetDBF=T FulRan=T
         wScrn=  0.000000 ICntrl=     500 IOpCl=  0 I1Cent=   200000004 NGrid=           0
         NMat0=    1 NMatS0=      1 NMatT0=    0 NMatD0=    1 NMtDS0=    0 NMtDT0=    0
 Petite list used in FoFCou.
 Requested convergence on RMS density matrix=1.00D-08 within 128 cycles.
 Requested convergence on MAX density matrix=1.00D-06.
 Requested convergence on             energy=1.00D-06.
 No special actions if energy rises.
 Integral accuracy reduced to 1.0D-05 until final iterations.
 Initial convergence to 1.0D-05 achieved.  Increase integral accuracy.
 SCF Done:  E(RM06) =  -932.162049832     A.U. after   18 cycles
            NFock= 18  Conv=0.38D-08     -V/T= 2.0047

 **********************************************************************

            Population analysis using the SCF density.

 **********************************************************************

 Orbital symmetries:
       Occupied  (A) (A) (A) (A) (A) (A) (A) (A) (A) (A) (A) (A)
                 (A) (A) (A) (A) (A) (A) (A) (A) (A) (A) (A) (A)
                 (A) (A) (A) (A) (A) (A) (A) (A) (A) (A) (A) (A)
                 (A) (A) (A) (A) (A) (A) (A) (A) (A) (A) (A) (A)
                 (A) (A) (A) (A) (A) (A) (A) (A) (A) (A) (A) (A)
                 (A) (A) (A) (A) (A) (A) (A) (A)
       Virtual   (A) (A) (A) (A) (A) (A) (A) (A) (A) (A) (A) (A)
                 (A) (A) (A) (A) (A) (A) (A) (A) (A) (A) (A) (A)
                 (A) (A) (A) (A) (A) (A) (A) (A) (A) (A) (A) (A)
                 (A) (A) (A) (A) (A) (A) (A) (A) (A) (A) (A) (A)
                 (A) (A) (A) (A) (A) (A) (A) (A) (A) (A) (A) (A)
                 (A) (A) (A) (A) (A) (A) (A) (A) (A) (A) (A) (A)
                 (A) (A) (A) (A) (A) (A) (A) (A) (A) (A) (A) (A)
                 (A) (A) (A) (A) (A) (A) (A) (A) (A) (A) (A) (A)
                 (A) (A) (A) (A) (A) (A) (A) (A) (A) (A) (A) (A)
                 (A) (A) (A) (A) (A) (A) (A) (A) (A) (A) (A) (A)
                 (A) (A) (A) (A) (A)
 The electronic state is 1-A.
 Alpha  occ. eigenvalues --  -19.29210 -19.28470 -19.26134 -19.21656 -19.18868
 Alpha  occ. eigenvalues --  -14.48821 -10.40175 -10.39381 -10.35272 -10.34263
 Alpha  occ. eigenvalues --  -10.34139 -10.33869 -10.33431 -10.32832 -10.28927
 Alpha  occ. eigenvalues --  -10.28132 -10.27660 -10.27387 -10.26856  -1.16599
 Alpha  occ. eigenvalues --   -1.13389  -1.07882  -1.04881  -1.04514  -1.03131
 Alpha  occ. eigenvalues --   -0.90474  -0.85146  -0.81560  -0.79916  -0.78727
 Alpha  occ. eigenvalues --   -0.73081  -0.70410  -0.68606  -0.67089  -0.63976
 Alpha  occ. eigenvalues --   -0.63150  -0.59958  -0.57045  -0.55249  -0.54626
 Alpha  occ. eigenvalues --   -0.53138  -0.51020  -0.50099  -0.49761  -0.49097
 Alpha  occ. eigenvalues --   -0.48054  -0.47489  -0.46883  -0.46015  -0.45606
 Alpha  occ. eigenvalues --   -0.44005  -0.43202  -0.41959  -0.41170  -0.40876
 Alpha  occ. eigenvalues --   -0.40155  -0.39847  -0.39534  -0.39370  -0.38208
 Alpha  occ. eigenvalues --   -0.37804  -0.34343  -0.32571  -0.29269  -0.28474
 Alpha  occ. eigenvalues --   -0.26517  -0.24676  -0.23422
 Alpha virt. eigenvalues --   -0.05621  -0.04556  -0.00225   0.02810   0.05949
 Alpha virt. eigenvalues --    0.08294   0.08862   0.09132   0.09993   0.10695
 Alpha virt. eigenvalues --    0.11724   0.12531   0.13089   0.14045   0.14673
 Alpha virt. eigenvalues --    0.16410   0.17414   0.17958   0.18758   0.19773
 Alpha virt. eigenvalues --    0.20075   0.20726   0.20846   0.22152   0.22443
 Alpha virt. eigenvalues --    0.22889   0.24735   0.25039   0.25559   0.26467
 Alpha virt. eigenvalues --    0.26840   0.27360   0.28006   0.28677   0.29051
 Alpha virt. eigenvalues --    0.30231   0.30501   0.31671   0.32120   0.32869
 Alpha virt. eigenvalues --    0.33502   0.34294   0.35112   0.36001   0.36949
 Alpha virt. eigenvalues --    0.37426   0.38180   0.38523   0.39197   0.40481
 Alpha virt. eigenvalues --    0.40617   0.41804   0.42546   0.43577   0.43984
 Alpha virt. eigenvalues --    0.44848   0.46843   0.47418   0.48071   0.48999
 Alpha virt. eigenvalues --    0.49973   0.50160   0.52058   0.52901   0.54792
 Alpha virt. eigenvalues --    0.55930   0.56350   0.57605   0.58913   0.61812
 Alpha virt. eigenvalues --    0.63932   0.66474   0.67352   0.68225   0.69531
 Alpha virt. eigenvalues --    0.70731   0.71060   0.73089   0.73538   0.74962
 Alpha virt. eigenvalues --    0.78992   0.79832   0.81822   0.83083   0.84457
 Alpha virt. eigenvalues --    0.85637   0.87383   0.88266   0.88425   0.88909
 Alpha virt. eigenvalues --    0.91679   0.92221   0.94272   0.97571   1.01277
 Alpha virt. eigenvalues --    1.04431   1.05467   1.06299   1.07087   1.07848
 Alpha virt. eigenvalues --    1.08833   1.10146   1.11357   1.12986   1.15949
 Alpha virt. eigenvalues --    1.16405   1.18364   1.22079   1.25319   1.28155
 Alpha virt. eigenvalues --    1.30603   1.33822   1.39601   1.42879   1.47429
 Alpha virt. eigenvalues --    1.50402   1.52389   1.53880   1.60795   1.78149
 Alpha virt. eigenvalues --    1.84933   1.97908   2.00503   2.04727   2.05325
          Condensed to atoms (all electrons):
               1          2          3          4          5          6
     1  O    8.035660  -0.043866   0.000000   0.000000   0.000000   0.000013
     2  O   -0.043866   8.030911   0.000004   0.000000   0.000000   0.000000
     3  O    0.000000   0.000004   7.791447  -0.006508   0.000009   0.000270
     4  O    0.000000   0.000000  -0.006508   8.081395  -0.083780   0.000005
     5  O    0.000000   0.000000   0.000009  -0.083780   7.886732   0.000825
     6  N    0.000013   0.000000   0.000270   0.000005   0.000825   6.649477
     7  C   -0.001246   0.000094  -0.006348  -0.000312  -0.000379   0.242086
     8  C    0.000228  -0.001356  -0.123177  -0.000868  -0.000122  -0.018019
     9  C   -0.047006   0.002559  -0.000207  -0.000003  -0.000013  -0.059284
    10  C   -0.000014  -0.000002   0.000003   0.000002   0.000232   0.242498
    11  C    0.260526  -0.033555   0.000084   0.000000   0.000000  -0.005598
    12  C   -0.037245   0.240874   0.001366   0.000000   0.000000   0.000405
    13  C    0.001037  -0.044549   0.020305   0.000134   0.000019   0.010458
    14  C    0.000001   0.000000   0.001611  -0.005430   0.003542   0.398954
    15  C    0.000022   0.000256   0.675119   0.002855  -0.003653  -0.007648
    16  C   -0.000003  -0.000003  -0.074339  -0.032020  -0.061311  -0.057910
    17  C    0.258038   0.270627   0.000000   0.000000   0.000000  -0.000001
    18  C    0.000002   0.000000   0.000000   0.000000   0.000002  -0.064907
    19  C    0.000000   0.000000  -0.007962   0.251478   0.589508   0.008907
    20  H   -0.001223  -0.000147   0.000001   0.000000   0.000000  -0.004212
    21  H   -0.000001   0.000000   0.000000   0.000000   0.000000  -0.039900
    22  H    0.000000   0.000000   0.000000   0.000000   0.000003  -0.040636
    23  H   -0.000118  -0.000307   0.012396   0.000000   0.000000  -0.000060
    24  H    0.000000   0.000000  -0.000056   0.000354   0.013284  -0.036515
    25  H   -0.041435  -0.042919   0.000000   0.000000   0.000000   0.000000
    26  H   -0.042193  -0.043432   0.000000   0.000000   0.000000   0.000000
    27  H    0.000000   0.000000   0.000000   0.000000   0.000001  -0.003192
    28  H    0.000000   0.000000   0.000000   0.000000   0.000000  -0.003362
    29  H    0.000000   0.000000   0.000000   0.000000   0.000000   0.004365
    30  H    0.000000   0.000000   0.000393   0.245219   0.003246   0.000001
               7          8          9         10         11         12
     1  O   -0.001246   0.000228  -0.047006  -0.000014   0.260526  -0.037245
     2  O    0.000094  -0.001356   0.002559  -0.000002  -0.033555   0.240874
     3  O   -0.006348  -0.123177  -0.000207   0.000003   0.000084   0.001366
     4  O   -0.000312  -0.000868  -0.000003   0.000002   0.000000   0.000000
     5  O   -0.000379  -0.000122  -0.000013   0.000232   0.000000   0.000000
     6  N    0.242086  -0.018019  -0.059284   0.242498  -0.005598   0.000405
     7  C    5.242529   0.189501   0.389418  -0.054477  -0.056532  -0.068031
     8  C    0.189501   5.669839  -0.126668   0.002719  -0.096872  -0.050390
     9  C    0.389418  -0.126668   5.683695   0.028483   0.457032  -0.121270
    10  C   -0.054477   0.002719   0.028483   5.258533   0.002062  -0.000087
    11  C   -0.056532  -0.096872   0.457032   0.002062   5.107258   0.358680
    12  C   -0.068031  -0.050390  -0.121270  -0.000087   0.358680   5.157539
    13  C   -0.109996   0.456815  -0.085468   0.000127  -0.107438   0.433746
    14  C   -0.124847   0.009806   0.007490  -0.055027   0.000030   0.000299
    15  C   -0.007454   0.095318   0.005899   0.000947  -0.000124  -0.020145
    16  C    0.019084  -0.155238  -0.005653   0.003925   0.000000  -0.000482
    17  C   -0.000044  -0.000199   0.008548  -0.000003  -0.095806  -0.101997
    18  C   -0.014445  -0.002056   0.004568   0.275792   0.001725   0.000149
    19  C   -0.000426  -0.023505  -0.000367   0.000406  -0.000011   0.000000
    20  H   -0.026876  -0.005364   0.289836   0.010553   0.001852   0.002017
    21  H   -0.017721  -0.002340   0.014473   0.367844   0.003132   0.000122
    22  H    0.002463   0.000514  -0.001047   0.363222  -0.000069  -0.000004
    23  H    0.003324  -0.005604   0.000823   0.000005  -0.003157  -0.037003
    24  H   -0.003489   0.000210  -0.000318  -0.001151  -0.000007   0.000003
    25  H   -0.000018  -0.000011  -0.000061   0.000000   0.001810   0.002781
    26  H   -0.000028  -0.000010   0.000109   0.000000   0.002319   0.002824
    27  H   -0.000134  -0.000122  -0.000021  -0.034876   0.000014   0.000000
    28  H    0.002510   0.000097   0.004054  -0.037511   0.000337  -0.000021
    29  H    0.000543   0.000023  -0.000632  -0.027683  -0.000033  -0.000001
    30  H    0.000005   0.000065   0.000000   0.000000   0.000000   0.000000
              13         14         15         16         17         18
     1  O    0.001037   0.000001   0.000022  -0.000003   0.258038   0.000002
     2  O   -0.044549   0.000000   0.000256  -0.000003   0.270627   0.000000
     3  O    0.020305   0.001611   0.675119  -0.074339   0.000000   0.000000
     4  O    0.000134  -0.005430   0.002855  -0.032020   0.000000   0.000000
     5  O    0.000019   0.003542  -0.003653  -0.061311   0.000000   0.000002
     6  N    0.010458   0.398954  -0.007648  -0.057910  -0.000001  -0.064907
     7  C   -0.109996  -0.124847  -0.007454   0.019084  -0.000044  -0.014445
     8  C    0.456815   0.009806   0.095318  -0.155238  -0.000199  -0.002056
     9  C   -0.085468   0.007490   0.005899  -0.005653   0.008548   0.004568
    10  C    0.000127  -0.055027   0.000947   0.003925  -0.000003   0.275792
    11  C   -0.107438   0.000030  -0.000124   0.000000  -0.095806   0.001725
    12  C    0.433746   0.000299  -0.020145  -0.000482  -0.101997   0.000149
    13  C    5.706970   0.002821  -0.057778  -0.021718   0.005557  -0.000088
    14  C    0.002821   5.522580  -0.071107   0.314168   0.000001  -0.005248
    15  C   -0.057778  -0.071107   5.194165   0.050486  -0.000009   0.000035
    16  C   -0.021718   0.314168   0.050486   5.850215   0.000000  -0.000611
    17  C    0.005557   0.000001  -0.000009   0.000000   5.137081   0.000003
    18  C   -0.000088  -0.005248   0.000035  -0.000611   0.000003   5.403281
    19  C    0.000359  -0.030976  -0.031833   0.088092   0.000000   0.000002
    20  H    0.001009   0.000687  -0.000068   0.000018  -0.000348  -0.005514
    21  H   -0.000100   0.002464  -0.000031   0.000057   0.000001  -0.043320
    22  H    0.000027   0.003730  -0.000066   0.000296   0.000000  -0.039290
    23  H    0.307988  -0.000141   0.000928   0.002631  -0.000346   0.000000
    24  H    0.000072   0.312854   0.003699  -0.012809   0.000000  -0.000409
    25  H    0.000114   0.000000   0.000000   0.000000   0.335126   0.000000
    26  H    0.000140   0.000000   0.000000   0.000000   0.334522   0.000000
    27  H   -0.000002   0.003309   0.000012   0.000068   0.000000   0.375297
    28  H    0.000033  -0.000033   0.000007  -0.000020   0.000000   0.371781
    29  H    0.000000  -0.000048   0.000000  -0.000001   0.000000   0.367022
    30  H   -0.000004  -0.000410   0.001802   0.005133   0.000000   0.000000
              19         20         21         22         23         24
     1  O    0.000000  -0.001223  -0.000001   0.000000  -0.000118   0.000000
     2  O    0.000000  -0.000147   0.000000   0.000000  -0.000307   0.000000
     3  O   -0.007962   0.000001   0.000000   0.000000   0.012396  -0.000056
     4  O    0.251478   0.000000   0.000000   0.000000   0.000000   0.000354
     5  O    0.589508   0.000000   0.000000   0.000003   0.000000   0.013284
     6  N    0.008907  -0.004212  -0.039900  -0.040636  -0.000060  -0.036515
     7  C   -0.000426  -0.026876  -0.017721   0.002463   0.003324  -0.003489
     8  C   -0.023505  -0.005364  -0.002340   0.000514  -0.005604   0.000210
     9  C   -0.000367   0.289836   0.014473  -0.001047   0.000823  -0.000318
    10  C    0.000406   0.010553   0.367844   0.363222   0.000005  -0.001151
    11  C   -0.000011   0.001852   0.003132  -0.000069  -0.003157  -0.000007
    12  C    0.000000   0.002017   0.000122  -0.000004  -0.037003   0.000003
    13  C    0.000359   0.001009  -0.000100   0.000027   0.307988   0.000072
    14  C   -0.030976   0.000687   0.002464   0.003730  -0.000141   0.312854
    15  C   -0.031833  -0.000068  -0.000031  -0.000066   0.000928   0.003699
    16  C    0.088092   0.000018   0.000057   0.000296   0.002631  -0.012809
    17  C    0.000000  -0.000348   0.000001   0.000000  -0.000346   0.000000
    18  C    0.000002  -0.005514  -0.043320  -0.039290   0.000000  -0.000409
    19  C    4.984295   0.000000   0.000004   0.000013  -0.000007  -0.006073
    20  H    0.000000   0.478628   0.003411   0.000120   0.000010   0.000004
    21  H    0.000004   0.003411   0.512163  -0.028106   0.000000   0.000212
    22  H    0.000013   0.000120  -0.028106   0.510180   0.000000   0.003145
    23  H   -0.000007   0.000010   0.000000   0.000000   0.417821   0.000000
    24  H   -0.006073   0.000004   0.000212   0.003145   0.000000   0.448893
    25  H    0.000000   0.000002   0.000000   0.000000   0.000002   0.000000
    26  H    0.000000   0.000003   0.000000   0.000000   0.000003   0.000000
    27  H    0.000012   0.000078   0.003150  -0.004124   0.000000  -0.000052
    28  H    0.000000   0.000270  -0.003789   0.003129   0.000000   0.000004
    29  H    0.000000   0.000106  -0.001001  -0.000881   0.000000   0.000003
    30  H   -0.028939   0.000000   0.000000   0.000000   0.000000   0.000001
              25         26         27         28         29         30
     1  O   -0.041435  -0.042193   0.000000   0.000000   0.000000   0.000000
     2  O   -0.042919  -0.043432   0.000000   0.000000   0.000000   0.000000
     3  O    0.000000   0.000000   0.000000   0.000000   0.000000   0.000393
     4  O    0.000000   0.000000   0.000000   0.000000   0.000000   0.245219
     5  O    0.000000   0.000000   0.000001   0.000000   0.000000   0.003246
     6  N    0.000000   0.000000  -0.003192  -0.003362   0.004365   0.000001
     7  C   -0.000018  -0.000028  -0.000134   0.002510   0.000543   0.000005
     8  C   -0.000011  -0.000010  -0.000122   0.000097   0.000023   0.000065
     9  C   -0.000061   0.000109  -0.000021   0.004054  -0.000632   0.000000
    10  C    0.000000   0.000000  -0.034876  -0.037511  -0.027683   0.000000
    11  C    0.001810   0.002319   0.000014   0.000337  -0.000033   0.000000
    12  C    0.002781   0.002824   0.000000  -0.000021  -0.000001   0.000000
    13  C    0.000114   0.000140  -0.000002   0.000033   0.000000  -0.000004
    14  C    0.000000   0.000000   0.003309  -0.000033  -0.000048  -0.000410
    15  C    0.000000   0.000000   0.000012   0.000007   0.000000   0.001802
    16  C    0.000000   0.000000   0.000068  -0.000020  -0.000001   0.005133
    17  C    0.335126   0.334522   0.000000   0.000000   0.000000   0.000000
    18  C    0.000000   0.000000   0.375297   0.371781   0.367022   0.000000
    19  C    0.000000   0.000000   0.000012   0.000000   0.000000  -0.028939
    20  H    0.000002   0.000003   0.000078   0.000270   0.000106   0.000000
    21  H    0.000000   0.000000   0.003150  -0.003789  -0.001001   0.000000
    22  H    0.000000   0.000000  -0.004124   0.003129  -0.000881   0.000000
    23  H    0.000002   0.000003   0.000000   0.000000   0.000000   0.000000
    24  H    0.000000   0.000000  -0.000052   0.000004   0.000003   0.000001
    25  H    0.550416  -0.052040   0.000000   0.000000   0.000000   0.000000
    26  H   -0.052040   0.551497   0.000000   0.000000   0.000000   0.000000
    27  H    0.000000   0.000000   0.472068  -0.020589  -0.018979   0.000000
    28  H    0.000000   0.000000  -0.020589   0.471160  -0.019124   0.000000
    29  H    0.000000   0.000000  -0.018979  -0.019124   0.472315   0.000000
    30  H    0.000000   0.000000   0.000000   0.000000   0.000000   0.369351
 Mulliken charges:
               1
     1  O   -0.341177
     2  O   -0.335190
     3  O   -0.284412
     4  O   -0.452522
     5  O   -0.348145
     6  N   -0.217020
     7  C    0.401246
     8  C    0.186788
     9  C   -0.448968
    10  C   -0.346519
    11  C    0.202339
    12  C    0.235869
    13  C   -0.520591
    14  C   -0.291080
    15  C    0.168365
    16  C    0.087945
    17  C   -0.150750
    18  C   -0.623770
    19  C    0.207021
    20  H    0.255150
    21  H    0.229276
    22  H    0.227381
    23  H    0.300812
    24  H    0.278142
    25  H    0.246234
    26  H    0.246285
    27  H    0.228083
    28  H    0.231068
    29  H    0.224005
    30  H    0.404137
 Sum of Mulliken charges =   0.00000
 Mulliken charges with hydrogens summed into heavy atoms:
               1
     1  O   -0.341177
     2  O   -0.335190
     3  O   -0.284412
     4  O   -0.048385
     5  O   -0.348145
     6  N   -0.217020
     7  C    0.401246
     8  C    0.186788
     9  C   -0.193819
    10  C    0.110137
    11  C    0.202339
    12  C    0.235869
    13  C   -0.219779
    14  C   -0.012938
    15  C    0.168365
    16  C    0.087945
    17  C    0.341769
    18  C    0.059387
    19  C    0.207021
 Electronic spatial extent (au):  <R**2>=           5538.1700
 Charge=              0.0000 electrons
 Dipole moment (field-independent basis, Debye):
    X=              4.0092    Y=              6.1515    Z=             -0.4717  Tot=              7.3578
 Quadrupole moment (field-independent basis, Debye-Ang):
   XX=           -102.4810   YY=           -108.1054   ZZ=           -108.0631
   XY=             -3.3055   XZ=             -0.3313   YZ=              0.7167
 Traceless Quadrupole moment (field-independent basis, Debye-Ang):
   XX=              3.7355   YY=             -1.8889   ZZ=             -1.8466
   XY=             -3.3055   XZ=             -0.3313   YZ=              0.7167
 Octapole moment (field-independent basis, Debye-Ang**2):
  XXX=            106.6146  YYY=             78.6704  ZZZ=              1.8183  XYY=            -16.9665
  XXY=            -65.6909  XXZ=              8.0596  XZZ=              0.1524  YZZ=             -1.6073
  YYZ=             -7.2591  XYZ=              1.3308
 Hexadecapole moment (field-independent basis, Debye-Ang**3):
 XXXX=          -4250.4023 YYYY=          -1902.0500 ZZZZ=           -189.9225 XXXY=            206.2254
 XXXZ=            -38.9354 YYYX=            -13.1847 YYYZ=             -3.8414 ZZZX=             -1.4799
 ZZZY=             -2.5155 XXYY=          -1124.9571 XXZZ=           -810.0126 YYZZ=           -356.4547
 XXYZ=             11.7534 YYXZ=              3.1042 ZZXY=             -0.0324
 N-N= 1.403658807862D+03 E-N=-4.985741987676D+03  KE= 9.278133429055D+02
 PrsmSu:  requested number of processors reduced to:   9 ShMem   1 Linda.
   1 Symmetry operations used in ECPInt.
 ECPInt:  NShTT=    6903 NPrTT=   54850 LenC2=    6443 LenP2D=   29857.
 LDataN:  DoStor=T MaxTD1= 3 Len=   28
 Number of processors reduced to  11 by ecpmxn.
 Calling FoFJK, ICntrl=      2127 FMM=F ISym2X=0 I1Cent= 0 IOpClX= 0 NMat=1 NMatS=1 NMatT=0.
 ***** Axes restored to original set *****
 -------------------------------------------------------------------
 Center     Atomic                   Forces (Hartrees/Bohr)
 Number     Number              X              Y              Z
 -------------------------------------------------------------------
      1        8          -0.000140671   -0.010429410    0.001354055
      2        8           0.003293300    0.009926308   -0.001321631
      3        8          -0.000664762   -0.007683407    0.001096678
      4        8          -0.018272656    0.005955218   -0.001084409
      5        8          -0.009757004    0.005812710   -0.000912212
      6        7           0.000658021    0.006824167   -0.000737938
      7        6           0.001461383   -0.000214782    0.000569207
      8        6          -0.002406108   -0.003811002    0.000341290
      9        6          -0.001981190    0.005364427   -0.000547112
     10        6           0.000201970   -0.005641447    0.006189845
     11        6           0.005325409    0.001402247   -0.000194475
     12        6           0.007052998   -0.003017418    0.000338723
     13        6          -0.000778212   -0.003440716    0.000433150
     14        6           0.005697422    0.009242933   -0.000897251
     15        6           0.004083875    0.008326232   -0.001135663
     16        6          -0.005604974   -0.007585669    0.000944180
     17        6          -0.009750106    0.001402649   -0.000091888
     18        6          -0.001512728   -0.002879731   -0.007194737
     19        6           0.012075317   -0.012646199    0.001879002
     20        1           0.000821727    0.003852027   -0.000480241
     21        1           0.000402316    0.000783137   -0.001203092
     22        1          -0.000048461    0.001194299   -0.000959065
     23        1          -0.000373598   -0.003059369    0.000398264
     24        1          -0.001713714    0.002736382   -0.000028595
     25        1          -0.000030417    0.000122101    0.001242846
     26        1          -0.000038991   -0.000200084   -0.001264231
     27        1          -0.000119073    0.000200774    0.000799572
     28        1           0.000636592    0.000271377    0.001181568
     29        1           0.000088515   -0.000454044    0.000815938
     30        1           0.011393818   -0.002353713    0.000468222
 -------------------------------------------------------------------
 Cartesian Forces:  Max     0.018272656 RMS     0.004720553

 GradGradGradGradGradGradGradGradGradGradGradGradGradGradGradGradGradGrad
 Berny optimization.
 FormGI is forming the generalized inverse of G from B-inverse, IUseBI=4.
 Internal  Forces:  Max     0.012366175 RMS     0.002716933
 Search for a local minimum.
 Step number   1 out of a maximum of  171
 All quantities printed in internal units (Hartrees-Bohrs-Radians)
 Mixed Optimization -- RFO/linear search
 Second derivative matrix not updated -- first step.
 ITU=  0
     Eigenvalues ---    0.00234   0.00504   0.00840   0.01092   0.01165
     Eigenvalues ---    0.01241   0.01448   0.01458   0.01600   0.01669
     Eigenvalues ---    0.01807   0.01839   0.01919   0.02052   0.02077
     Eigenvalues ---    0.02146   0.02191   0.02203   0.02252   0.02319
     Eigenvalues ---    0.02389   0.04068   0.05217   0.05516   0.05631
     Eigenvalues ---    0.07296   0.09347   0.09799   0.11426   0.11704
     Eigenvalues ---    0.12743   0.16000   0.16000   0.16000   0.16000
     Eigenvalues ---    0.16000   0.16000   0.16000   0.21957   0.23135
     Eigenvalues ---    0.23434   0.23843   0.24028   0.24963   0.24992
     Eigenvalues ---    0.24999   0.25000   0.25000   0.25000   0.25000
     Eigenvalues ---    0.25000   0.25000   0.28498   0.32545   0.32662
     Eigenvalues ---    0.33475   0.34231   0.34237   0.34360   0.34434
     Eigenvalues ---    0.34480   0.34492   0.34697   0.34718   0.35537
     Eigenvalues ---    0.35764   0.35904   0.36010   0.36231   0.38802
     Eigenvalues ---    0.40991   0.42697   0.43185   0.43565   0.43651
     Eigenvalues ---    0.45823   0.48149   0.49083   0.49769   0.50645
     Eigenvalues ---    0.50813   0.52202   0.84458   0.87852
 RFO step:  Lambda=-3.19337694D-03 EMin= 2.33650861D-03
 Linear search not attempted -- first point.
 Iteration  1 RMS(Cart)=  0.02151927 RMS(Int)=  0.00013685
 Iteration  2 RMS(Cart)=  0.00021550 RMS(Int)=  0.00001300
 Iteration  3 RMS(Cart)=  0.00000002 RMS(Int)=  0.00001300
 Variable       Old X    -DE/DX   Delta X   Delta X   Delta X     New X
                                 (Linear)    (Quad)   (Total)
    R1        2.63547  -0.00441   0.00000  -0.00915  -0.00915   2.62632
    R2        2.80708  -0.00853   0.00000  -0.02572  -0.02571   2.78136
    R3        2.65243  -0.00421   0.00000  -0.00900  -0.00900   2.64342
    R4        2.78572  -0.00875   0.00000  -0.02540  -0.02539   2.76033
    R5        2.35597   0.00779   0.00000   0.00919   0.00919   2.36516
    R6        2.59053  -0.00217   0.00000  -0.00425  -0.00425   2.58628
    R7        1.88481  -0.01111   0.00000  -0.02293  -0.02293   1.86187
    R8        2.33939   0.01112   0.00000   0.01261   0.01261   2.35200
    R9        2.65870   0.00026   0.00000   0.00014   0.00013   2.65883
   R10        2.81526  -0.00648   0.00000  -0.01918  -0.01918   2.79608
   R11        2.56631   0.00002   0.00000   0.00020   0.00019   2.56650
   R12        2.66532   0.00566   0.00000   0.01190   0.01189   2.67722
   R13        2.67737   0.00195   0.00000   0.00420   0.00420   2.68157
   R14        2.66617   0.00455   0.00000   0.01034   0.01034   2.67651
   R15        2.81915   0.00178   0.00000   0.00503   0.00503   2.82418
   R16        2.59340   0.00369   0.00000   0.00723   0.00723   2.60063
   R17        2.03721   0.00397   0.00000   0.01086   0.01086   2.04807
   R18        2.91063  -0.00529   0.00000  -0.01835  -0.01835   2.89228
   R19        2.06528   0.00123   0.00000   0.00354   0.00354   2.06882
   R20        2.06508   0.00083   0.00000   0.00237   0.00237   2.06745
   R21        2.64712   0.00274   0.00000   0.00700   0.00698   2.65410
   R22        2.58254   0.00542   0.00000   0.01068   0.01068   2.59323
   R23        2.04231   0.00310   0.00000   0.00855   0.00855   2.05086
   R24        2.58416   0.01237   0.00000   0.02441   0.02442   2.60858
   R25        2.04813   0.00305   0.00000   0.00850   0.00850   2.05663
   R26        2.75800   0.00504   0.00000   0.01408   0.01410   2.77209
   R27        2.77752   0.00513   0.00000   0.01423   0.01423   2.79175
   R28        2.06136   0.00102   0.00000   0.00290   0.00290   2.06426
   R29        2.06169   0.00105   0.00000   0.00301   0.00301   2.06471
   R30        2.06726   0.00056   0.00000   0.00160   0.00160   2.06887
   R31        2.06604   0.00092   0.00000   0.00266   0.00266   2.06869
   R32        2.06942  -0.00054   0.00000  -0.00156  -0.00156   2.06786
    A1        1.84698   0.00199   0.00000   0.00756   0.00757   1.85454
    A2        1.85175   0.00184   0.00000   0.00707   0.00707   1.85882
    A3        1.87090   0.00657   0.00000   0.04023   0.04023   1.91113
    A4        2.12099  -0.00177   0.00000  -0.00691  -0.00691   2.11408
    A5        2.08420   0.00165   0.00000   0.00584   0.00580   2.09000
    A6        2.07681   0.00011   0.00000   0.00054   0.00054   2.07734
    A7        2.07002   0.00085   0.00000   0.00159   0.00156   2.07158
    A8        2.11779  -0.00422   0.00000  -0.01547  -0.01545   2.10234
    A9        2.09536   0.00337   0.00000   0.01386   0.01387   2.10923
   A10        2.10344  -0.00092   0.00000  -0.00270  -0.00269   2.10074
   A11        2.14860  -0.00107   0.00000  -0.00579  -0.00581   2.14279
   A12        2.03114   0.00199   0.00000   0.00850   0.00851   2.03965
   A13        2.05478  -0.00330   0.00000  -0.01489  -0.01490   2.03988
   A14        2.13756   0.00171   0.00000   0.00779   0.00779   2.14536
   A15        2.09084   0.00160   0.00000   0.00710   0.00710   2.09795
   A16        1.95488  -0.00182   0.00000  -0.00663  -0.00662   1.94826
   A17        1.89460   0.00070   0.00000   0.00429   0.00429   1.89889
   A18        1.86107   0.00116   0.00000   0.00911   0.00911   1.87017
   A19        1.94628   0.00063   0.00000   0.00206   0.00206   1.94834
   A20        1.92476   0.00018   0.00000  -0.00030  -0.00029   1.92447
   A21        1.87868  -0.00078   0.00000  -0.00829  -0.00830   1.87038
   A22        2.21689   0.00069   0.00000   0.00122   0.00124   2.21813
   A23        1.93373  -0.00253   0.00000  -0.00831  -0.00831   1.92542
   A24        2.13256   0.00184   0.00000   0.00709   0.00708   2.13964
   A25        1.92321  -0.00230   0.00000  -0.00767  -0.00768   1.91554
   A26        2.24745   0.00091   0.00000   0.00173   0.00175   2.24920
   A27        2.11252   0.00139   0.00000   0.00593   0.00593   2.11845
   A28        2.06771  -0.00237   0.00000  -0.00928  -0.00929   2.05843
   A29        2.05563   0.00144   0.00000   0.00620   0.00620   2.06183
   A30        2.15984   0.00093   0.00000   0.00309   0.00309   2.16293
   A31        2.18299  -0.00010   0.00000   0.00112   0.00112   2.18410
   A32        2.04360  -0.00097   0.00000  -0.00681  -0.00682   2.03678
   A33        2.05659   0.00107   0.00000   0.00571   0.00571   2.06230
   A34        2.10105  -0.00141   0.00000  -0.00584  -0.00585   2.09520
   A35        2.21007  -0.00105   0.00000  -0.00443  -0.00445   2.20563
   A36        1.97206   0.00246   0.00000   0.01029   0.01029   1.98235
   A37        2.10848  -0.00379   0.00000  -0.01300  -0.01299   2.09549
   A38        1.98571   0.00153   0.00000   0.00504   0.00503   1.99074
   A39        2.18900   0.00227   0.00000   0.00796   0.00795   2.19695
   A40        1.86903   0.00100   0.00000   0.00132   0.00134   1.87037
   A41        1.90090  -0.00040   0.00000  -0.00186  -0.00187   1.89904
   A42        1.90060  -0.00038   0.00000  -0.00169  -0.00169   1.89891
   A43        1.91226  -0.00047   0.00000  -0.00245  -0.00245   1.90981
   A44        1.91257  -0.00045   0.00000  -0.00225  -0.00226   1.91031
   A45        1.96588   0.00073   0.00000   0.00669   0.00669   1.97258
   A46        1.91987   0.00049   0.00000   0.00272   0.00271   1.92258
   A47        1.93655   0.00117   0.00000   0.00741   0.00739   1.94394
   A48        1.91607   0.00075   0.00000   0.00463   0.00462   1.92069
   A49        1.89362  -0.00086   0.00000  -0.00528  -0.00530   1.88833
   A50        1.89839  -0.00069   0.00000  -0.00470  -0.00471   1.89368
   A51        1.89870  -0.00093   0.00000  -0.00519  -0.00521   1.89348
   A52        2.12809  -0.00619   0.00000  -0.02446  -0.02446   2.10363
   A53        1.98368   0.00659   0.00000   0.02604   0.02604   2.00972
   A54        2.17141  -0.00040   0.00000  -0.00158  -0.00158   2.16983
    D1       -3.13797   0.00002   0.00000   0.00119   0.00119  -3.13678
    D2        0.00639   0.00001   0.00000   0.00089   0.00089   0.00728
    D3       -0.01061  -0.00003   0.00000  -0.00145  -0.00145  -0.01206
    D4       -2.07712   0.00019   0.00000   0.00171   0.00171  -2.07542
    D5        2.05610  -0.00021   0.00000  -0.00429  -0.00429   2.05182
    D6       -0.00728  -0.00001   0.00000  -0.00089  -0.00088  -0.00816
    D7        3.13595   0.00000   0.00000  -0.00010  -0.00010   3.13584
    D8        0.01093   0.00003   0.00000   0.00145   0.00145   0.01238
    D9        2.07005  -0.00014   0.00000  -0.00133  -0.00133   2.06871
   D10       -2.04799   0.00016   0.00000   0.00392   0.00391  -2.04408
   D11        0.00060  -0.00001   0.00000  -0.00076  -0.00075  -0.00015
   D12        3.14125   0.00002   0.00000   0.00121   0.00120  -3.14073
   D13        3.08682   0.00007   0.00000   0.00164   0.00167   3.08848
   D14       -0.06112   0.00002   0.00000  -0.00095  -0.00091  -0.06202
   D15       -0.00189   0.00026   0.00000   0.01321   0.01324   0.01135
   D16        3.13337   0.00022   0.00000   0.01062   0.01066  -3.13916
   D17       -1.38092  -0.00010   0.00000  -0.00885  -0.00887  -1.38979
   D18        0.77567  -0.00003   0.00000  -0.00765  -0.00767   0.76799
   D19        2.79524   0.00000   0.00000  -0.01048  -0.01048   2.78475
   D20        1.70800  -0.00025   0.00000  -0.02021  -0.02020   1.68780
   D21       -2.41860  -0.00018   0.00000  -0.01901  -0.01900  -2.43760
   D22       -0.39903  -0.00015   0.00000  -0.02184  -0.02181  -0.42084
   D23        0.00110  -0.00022   0.00000  -0.01074  -0.01073  -0.00964
   D24       -3.13556  -0.00032   0.00000  -0.01404  -0.01405   3.13358
   D25       -3.08895   0.00003   0.00000   0.00077   0.00083  -3.08813
   D26        0.05758  -0.00008   0.00000  -0.00254  -0.00249   0.05509
   D27        3.13486  -0.00010   0.00000  -0.00421  -0.00423   3.13062
   D28       -0.00235  -0.00013   0.00000  -0.00620  -0.00620  -0.00855
   D29       -0.00048  -0.00003   0.00000  -0.00155  -0.00154  -0.00202
   D30       -3.13768  -0.00006   0.00000  -0.00353  -0.00350  -3.14119
   D31       -3.13320   0.00008   0.00000   0.00417   0.00417  -3.12903
   D32        0.00967   0.00005   0.00000   0.00280   0.00280   0.01247
   D33        0.00196   0.00003   0.00000   0.00150   0.00149   0.00345
   D34       -3.13836   0.00000   0.00000   0.00012   0.00012  -3.13824
   D35       -0.00048   0.00000   0.00000   0.00027   0.00026  -0.00021
   D36       -3.14081   0.00000   0.00000   0.00003   0.00003  -3.14079
   D37        3.13701   0.00003   0.00000   0.00210   0.00208   3.13909
   D38       -0.00333   0.00003   0.00000   0.00186   0.00185  -0.00148
   D39       -3.13783   0.00007   0.00000   0.00428   0.00427  -3.13357
   D40        0.00678  -0.00003   0.00000  -0.00343  -0.00345   0.00333
   D41        0.00798   0.00005   0.00000   0.00240   0.00239   0.01037
   D42       -3.13059  -0.00006   0.00000  -0.00532  -0.00532  -3.13592
   D43       -3.14110  -0.00001   0.00000  -0.00056  -0.00055   3.14153
   D44       -0.00256   0.00000   0.00000  -0.00025  -0.00025  -0.00281
   D45       -0.00075   0.00002   0.00000   0.00078   0.00078   0.00003
   D46        3.13779   0.00002   0.00000   0.00109   0.00109   3.13888
   D47       -1.05465  -0.00014   0.00000  -0.00172  -0.00172  -1.05638
   D48        1.04081  -0.00014   0.00000  -0.00179  -0.00179   1.03902
   D49        3.14012  -0.00007   0.00000  -0.00050  -0.00050   3.13963
   D50        3.10127  -0.00019   0.00000  -0.00401  -0.00401   3.09726
   D51       -1.08645  -0.00020   0.00000  -0.00408  -0.00409  -1.09053
   D52        1.01286  -0.00012   0.00000  -0.00279  -0.00279   1.01007
   D53        1.01503   0.00027   0.00000   0.00526   0.00526   1.02029
   D54        3.11050   0.00026   0.00000   0.00519   0.00519   3.11568
   D55       -1.07338   0.00034   0.00000   0.00648   0.00648  -1.06689
   D56        0.00054   0.00000   0.00000  -0.00001  -0.00001   0.00052
   D57        3.14065  -0.00001   0.00000  -0.00073  -0.00073   3.13992
   D58       -3.13845  -0.00001   0.00000  -0.00028  -0.00029  -3.13873
   D59        0.00166  -0.00002   0.00000  -0.00100  -0.00100   0.00066
   D60        3.13974   0.00001   0.00000   0.00012   0.00011   3.13985
   D61       -0.00319   0.00001   0.00000   0.00037   0.00036  -0.00283
   D62       -0.00007   0.00002   0.00000   0.00099   0.00099   0.00091
   D63        3.14018   0.00002   0.00000   0.00125   0.00123   3.14142
   D64        0.00403   0.00002   0.00000   0.00025   0.00025   0.00428
   D65       -3.13568   0.00003   0.00000   0.00081   0.00080  -3.13489
   D66        3.14066   0.00012   0.00000   0.00354   0.00357  -3.13896
   D67        0.00094   0.00012   0.00000   0.00410   0.00412   0.00506
   D68        3.13739  -0.00001   0.00000  -0.00177  -0.00179   3.13560
   D69       -0.00631  -0.00002   0.00000  -0.00241  -0.00241  -0.00873
   D70       -0.00745   0.00010   0.00000   0.00652   0.00651  -0.00094
   D71        3.13204   0.00009   0.00000   0.00588   0.00588   3.13792
   D72       -3.13969  -0.00004   0.00000  -0.00261  -0.00261   3.14089
   D73        0.00093  -0.00001   0.00000  -0.00059  -0.00058   0.00035
   D74        0.00388  -0.00003   0.00000  -0.00199  -0.00199   0.00188
   D75       -3.13868   0.00001   0.00000   0.00003   0.00003  -3.13865
         Item               Value     Threshold  Converged?
 Maximum Force            0.012366     0.000450     NO 
 RMS     Force            0.002717     0.000300     NO 
 Maximum Displacement     0.111059     0.001800     NO 
 RMS     Displacement     0.021487     0.001200     NO 
 Predicted change in Energy=-1.616840D-03
 GradGradGradGradGradGradGradGradGradGradGradGradGradGradGradGradGradGrad

                          Input orientation:                          
 ---------------------------------------------------------------------
 Center     Atomic      Atomic             Coordinates (Angstroms)
 Number     Number       Type             X           Y           Z
 ---------------------------------------------------------------------
      1          8           0        4.074925    0.571044   -0.160102
      2          8           0        3.743566   -1.746609    0.135857
      3          8           0       -1.347897   -2.577656    0.237985
      4          8           0       -4.064320   -1.985728    0.133433
      5          8           0       -4.644107    0.189629   -0.157108
      6          7           0       -0.755690    1.495715   -0.302889
      7          6           0        0.361872    0.649965   -0.178864
      8          6           0        0.147284   -0.739082   -0.001091
      9          6           0        1.676277    1.180961   -0.242237
     10          6           0       -0.595832    2.961718   -0.423548
     11          6           0        2.715137    0.285683   -0.127549
     12          6           0        2.510138   -1.092629    0.048023
     13          6           0        1.246814   -1.624382    0.114323
     14          6           0       -2.007303    0.972563   -0.237240
     15          6           0       -1.217344   -1.344134    0.071101
     16          6           0       -2.301284   -0.364977   -0.063823
     17          6           0        4.770076   -0.716843   -0.003865
     18          6           0       -0.343165    3.615487    0.937065
     19          6           0       -3.747532   -0.665205   -0.036668
     20          1           0        1.879015    2.237411   -0.374219
     21          1           0        0.214865    3.171327   -1.128784
     22          1           0       -1.517435    3.351465   -0.865915
     23          1           0        1.040820   -2.681409    0.248752
     24          1           0       -2.835387    1.672449   -0.331457
     25          1           0        5.375831   -0.682136    0.904487
     26          1           0        5.359433   -0.910233   -0.903322
     27          1           0       -1.187857    3.428692    1.608025
     28          1           0        0.561873    3.219072    1.408383
     29          1           0       -0.227060    4.697018    0.817787
     30          1           0       -5.043934   -2.090965    0.138184
 ---------------------------------------------------------------------
                    Distance matrix (angstroms):
                    1          2          3          4          5
     1  O    0.000000
     2  O    2.359853   0.000000
     3  O    6.283293   5.159851   0.000000
     4  O    8.536425   7.811547   2.782133   0.000000
     5  O    8.727370   8.613240   4.321917   2.269966   0.000000
     6  N    4.920391   5.563135   4.151578   4.822640   4.104497
     7  C    3.713938   4.156738   3.676222   5.160968   5.027147
     8  C    4.143437   3.737260   2.381823   4.394296   4.883060
     9  C    2.476339   3.603791   4.848035   6.566849   6.398222
    10  C    5.253636   6.427414   5.629200   6.067772   4.913654
    11  C    1.389789   2.292872   4.984031   7.154611   7.359930
    12  C    2.293400   1.398839   4.138335   6.635391   7.271140
    13  C    3.590740   2.499835   2.767046   5.323446   6.169866
    14  C    6.095954   6.372252   3.642075   3.622182   2.751753
    15  C    5.632891   4.977630   1.251588   2.919042   3.761278
    16  C    6.445265   6.203949   2.428164   2.402923   2.409380
    17  C    1.471835   1.460706   6.399273   8.926112   9.458964
    18  C    5.476489   6.789358   6.312940   6.772476   5.606408
    19  C    7.920503   7.570716   3.080771   1.368602   1.244626
    20  H    2.764895   4.428222   5.828604   7.308615   6.840443
    21  H    4.753933   6.183619   6.112372   6.819079   5.783104
    22  H    6.285173   7.394055   6.033392   5.997579   4.502854
    23  H    4.466699   2.862068   2.390993   5.153613   6.381690
    24  H    6.999633   7.429063   4.538754   3.886986   2.345340
    25  H    2.096704   2.094800   7.017530   9.560875  10.113660
    26  H    2.096788   2.095339   7.005080   9.541419  10.091449
    27  H    6.244141   7.298627   6.162697   6.305902   5.054986
    28  H    4.670517   6.033281   6.214427   7.079344   6.223385
    29  H    6.040447   7.599423   7.383314   7.736407   6.385709
    30  H    9.504149   8.794245   3.729279   0.985261   2.334131
                    6          7          8          9         10
     6  N    0.000000
     7  C    1.406990   0.000000
     8  C    2.429148   1.416722   0.000000
     9  C    2.453001   1.419026   2.466280   0.000000
    10  C    1.479621   2.514213   3.798238   2.892481   0.000000
    11  C    3.679886   2.381846   2.767671   1.376192   4.267469
    12  C    4.181902   2.775457   2.389662   2.439014   5.129051
    13  C    3.730830   2.457994   1.416348   2.860336   4.971615
    14  C    1.358135   2.391750   2.761836   3.689474   2.446160
    15  C    2.901333   2.555941   1.494493   3.853223   4.378506
    16  C    2.430676   2.852322   2.477776   4.271153   3.755645
    17  C    5.959775   4.618555   4.622846   3.637316   6.519272
    18  C    2.490200   3.246027   4.481400   3.375769   1.530530
    19  C    3.700211   4.317070   3.895679   5.733088   4.820524
    20  H    2.738042   2.204511   3.463759   1.083793   2.579131
    21  H    2.105174   2.698374   4.070326   2.623594   1.094771
    22  H    2.083521   3.361835   4.500198   3.911504   1.094049
    23  H    4.580406   3.426642   2.152548   3.944969   5.914008
    24  H    2.087389   3.360242   3.849799   4.539233   2.585789
    25  H    6.617881   5.299805   5.306695   4.298000   7.120541
    26  H    6.598776   5.285326   5.292429   4.286696   7.119506
    27  H    2.752228   3.649103   4.662852   4.083997   2.166990
    28  H    2.763039   3.026493   4.222023   2.849621   2.182312
    29  H    3.432740   4.209369   5.510161   4.136302   2.165218
    30  H    5.607838   6.069263   5.366165   7.484080   6.755054
                   11         12         13         14         15
    11  C    0.000000
    12  C    1.404492   0.000000
    13  C    2.421327   1.372277   0.000000
    14  C    4.773392   4.975305   4.178156   0.000000
    15  C    4.261475   3.736028   2.480419   2.467021   0.000000
    16  C    5.058843   4.867418   3.769195   1.380403   1.466928
    17  C    2.289788   2.291556   3.640188   6.988663   6.020656
    18  C    4.644804   5.576566   5.537252   3.336674   5.109982
    19  C    6.532881   6.272822   5.087858   2.398105   2.621910
    20  H    2.137566   3.415520   3.943577   4.089263   4.755335
    21  H    3.947248   4.983420   5.060539   3.250761   4.886751
    22  H    5.278150   6.066845   5.775897   2.508860   4.797573
    23  H    3.427619   2.173340   1.085270   4.783173   2.630431
    24  H    5.724772   6.030282   5.266135   1.088321   3.446722
    25  H    3.013481   3.018979   4.308245   7.651943   6.678527
    26  H    3.004054   3.009453   4.296423   7.632652   6.662714
    27  H    5.303215   6.045752   5.804509   3.179475   5.014267
    28  H    3.949734   4.923117   5.059918   3.788871   5.077084
    29  H    5.386098   6.450178   6.528955   4.260741   6.167148
    30  H    8.119252   7.620289   6.308072   4.329812   3.899365
                   16         17         18         19         20
    16  C    0.000000
    17  C    7.080362   0.000000
    18  C    4.547538   6.767545   0.000000
    19  C    1.477331   8.517827   5.555375   0.000000
    20  H    4.933930   4.150062   2.925174   6.340122   0.000000
    21  H    4.468847   6.093706   2.185500   5.622480   2.052062
    22  H    3.881973   7.538372   2.167799   4.668471   3.608151
    23  H    4.078384   4.222639   6.483832   5.203350   5.028464
    24  H    2.123206   7.978665   3.405248   2.526566   4.748326
    25  H    7.744437   1.092359   7.153848   9.171794   4.731445
    26  H    7.725842   1.092596   7.509247   9.151389   4.722386
    27  H    4.292636   7.435094   1.094799   5.100680   3.841112
    28  H    4.817724   5.932524   1.094706   5.978858   2.424086
    29  H    5.541068   7.413256   1.094265   6.471263   3.450521
    30  H    3.246840   9.910760   7.436331   1.934948   8.180747
                   21         22         23         24         25
    21  H    0.000000
    22  H    1.761367   0.000000
    23  H    6.069128   6.647008   0.000000
    24  H    3.490903   2.200395   5.858131   0.000000
    25  H    6.754179   8.180549   4.818651   8.631091   0.000000
    26  H    6.570886   8.090413   4.807781   8.611176   1.822216
    27  H    3.086096   2.496991   6.644393   3.091979   7.776624
    28  H    2.561233   3.084394   6.032396   4.118309   6.216713
    29  H    2.512403   2.512058   7.508162   4.155978   7.767574
    30  H    7.546648   6.562351   6.114334   4.388795  10.542463
                   26         27         28         29         30
    26  H    0.000000
    27  H    8.246220   0.000000
    28  H    6.738822   1.773515   0.000000
    29  H    8.100147   1.776586   1.776385   0.000000
    30  H   10.521830   6.891761   7.825277   8.351098   0.000000
 Stoichiometry    C13H11NO5
 Framework group  C1[X(C13H11NO5)]
 Deg. of freedom    84
 Full point group                 C1      NOp   1
 Largest Abelian subgroup         C1      NOp   1
 Largest concise Abelian subgroup C1      NOp   1
[...]
                 (A) (A) (A) (A) (A) (A) (A) (A) (A) (A) (A) (A)
                 (A) (A) (A) (A) (A)
 The electronic state is 1-A.
 Alpha  occ. eigenvalues --  -19.29210 -19.28471 -19.26055 -19.21359 -19.18832
 Alpha  occ. eigenvalues --  -14.48912 -10.40287 -10.39362 -10.35460 -10.34356
 Alpha  occ. eigenvalues --  -10.34341 -10.34051 -10.33637 -10.32748 -10.29162
 Alpha  occ. eigenvalues --  -10.28406 -10.27962 -10.27667 -10.26801  -1.17534
 Alpha  occ. eigenvalues --   -1.13425  -1.08395  -1.04519  -1.04163  -1.03213
 Alpha  occ. eigenvalues --   -0.90430  -0.85056  -0.81653  -0.80000  -0.78776
 Alpha  occ. eigenvalues --   -0.73145  -0.70629  -0.68649  -0.66985  -0.64484
 Alpha  occ. eigenvalues --   -0.63045  -0.60345  -0.57159  -0.55561  -0.54995
 Alpha  occ. eigenvalues --   -0.53333  -0.51294  -0.50110  -0.49767  -0.49277
 Alpha  occ. eigenvalues --   -0.47862  -0.47508  -0.46849  -0.45997  -0.45692
 Alpha  occ. eigenvalues --   -0.44037  -0.43233  -0.41889  -0.41207  -0.40808
 Alpha  occ. eigenvalues --   -0.40478  -0.39668  -0.39445  -0.39061  -0.38149
 Alpha  occ. eigenvalues --   -0.37843  -0.34323  -0.32409  -0.28974  -0.28492
 Alpha  occ. eigenvalues --   -0.26458  -0.24658  -0.23394
 Alpha virt. eigenvalues --   -0.05776  -0.04767  -0.00426   0.02629   0.06462
 Alpha virt. eigenvalues --    0.08768   0.08920   0.09493   0.10133   0.10720
 Alpha virt. eigenvalues --    0.11818   0.12562   0.13034   0.13847   0.14662
 Alpha virt. eigenvalues --    0.16276   0.17151   0.17807   0.18702   0.19735
 Alpha virt. eigenvalues --    0.19975   0.20690   0.20843   0.22135   0.22400
 Alpha virt. eigenvalues --    0.22852   0.24620   0.24955   0.25666   0.26509
 Alpha virt. eigenvalues --    0.26758   0.27404   0.28228   0.28771   0.29076
 Alpha virt. eigenvalues --    0.30189   0.30545   0.31837   0.32132   0.32849
 Alpha virt. eigenvalues --    0.33466   0.34278   0.35036   0.36028   0.37015
 Alpha virt. eigenvalues --    0.37455   0.37973   0.38504   0.39202   0.40154
 Alpha virt. eigenvalues --    0.40687   0.41833   0.42497   0.43430   0.44079
 Alpha virt. eigenvalues --    0.44794   0.46885   0.47292   0.48036   0.48676
 Alpha virt. eigenvalues --    0.49895   0.50299   0.51587   0.52484   0.54588
 Alpha virt. eigenvalues --    0.55689   0.55858   0.57597   0.58870   0.61244
 Alpha virt. eigenvalues --    0.63578   0.66078   0.67289   0.67882   0.69194
 Alpha virt. eigenvalues --    0.70464   0.70975   0.72831   0.73585   0.74494
 Alpha virt. eigenvalues --    0.78699   0.79892   0.81834   0.82758   0.84437
 Alpha virt. eigenvalues --    0.85551   0.87245   0.88335   0.88545   0.89007
 Alpha virt. eigenvalues --    0.91529   0.92063   0.94837   0.97596   1.01489
 Alpha virt. eigenvalues --    1.04302   1.05593   1.06361   1.06945   1.07821
 Alpha virt. eigenvalues --    1.08749   1.09861   1.11229   1.12830   1.15750
 Alpha virt. eigenvalues --    1.15930   1.17995   1.21728   1.25412   1.27142
 Alpha virt. eigenvalues --    1.30381   1.33314   1.39723   1.43061   1.47541
 Alpha virt. eigenvalues --    1.50335   1.52197   1.53556   1.60524   1.77825
 Alpha virt. eigenvalues --    1.84623   1.97639   2.00338   2.04968   2.05743
          Condensed to atoms (all electrons):
               1          2          3          4          5          6
     1  O    8.032799  -0.046430   0.000000   0.000000   0.000000   0.000012
     2  O   -0.046430   8.028443   0.000003   0.000000   0.000000  -0.000001
     3  O    0.000000   0.000003   7.800181  -0.005310   0.000009   0.000258
     4  O    0.000000   0.000000  -0.005310   8.068387  -0.086682   0.000007
     5  O    0.000000   0.000000   0.000009  -0.086682   7.900155   0.000874
     6  N    0.000012  -0.000001   0.000258   0.000007   0.000874   6.649526
     7  C   -0.001219   0.000031  -0.006034  -0.000278  -0.000337   0.239299
     8  C    0.000231  -0.001447  -0.122353  -0.000724  -0.000155  -0.016770
     9  C   -0.045259   0.002968  -0.000215  -0.000003  -0.000012  -0.060338
    10  C   -0.000010  -0.000003   0.000003   0.000001   0.000214   0.245529
    11  C    0.257705  -0.032502   0.000093   0.000000   0.000000  -0.005616
    12  C   -0.037671   0.237714   0.001512   0.000000   0.000000   0.000332
    13  C    0.001314  -0.043982   0.020875   0.000117   0.000018   0.010492
    14  C    0.000001   0.000000   0.001738  -0.005713   0.004565   0.397480
    15  C    0.000022   0.000249   0.671480   0.004559  -0.003387  -0.007427
    16  C   -0.000003  -0.000002  -0.075562  -0.030481  -0.064633  -0.058308
    17  C    0.260012   0.272752   0.000000   0.000000   0.000000  -0.000002
    18  C    0.000002   0.000000   0.000000   0.000000   0.000004  -0.067253
    19  C    0.000000   0.000000  -0.008000   0.257847   0.590515   0.008671
    20  H   -0.001242  -0.000144   0.000000   0.000000   0.000000  -0.004338
    21  H   -0.000002   0.000000   0.000000   0.000000   0.000000  -0.039350
    22  H    0.000000   0.000000   0.000000   0.000000   0.000003  -0.040482
    23  H   -0.000117  -0.000289   0.011439   0.000000   0.000000  -0.000057
    24  H    0.000000   0.000000  -0.000055   0.000331   0.012632  -0.037408
    25  H   -0.039490  -0.041357   0.000000   0.000000   0.000000   0.000000
    26  H   -0.046880  -0.047762   0.000000   0.000000   0.000000   0.000000
    27  H    0.000000   0.000000   0.000000   0.000000   0.000001  -0.003728
    28  H    0.000000   0.000000   0.000000   0.000000   0.000000  -0.003419
    29  H    0.000000   0.000000   0.000000   0.000000   0.000000   0.004584
    30  H    0.000000   0.000000   0.000321   0.249475   0.003064   0.000001
               7          8          9         10         11         12
     1  O   -0.001219   0.000231  -0.045259  -0.000010   0.257705  -0.037671
     2  O    0.000031  -0.001447   0.002968  -0.000003  -0.032502   0.237714
     3  O   -0.006034  -0.122353  -0.000215   0.000003   0.000093   0.001512
     4  O   -0.000278  -0.000724  -0.000003   0.000001   0.000000   0.000000
     5  O   -0.000337  -0.000155  -0.000012   0.000214   0.000000   0.000000
     6  N    0.239299  -0.016770  -0.060338   0.245529  -0.005616   0.000332
     7  C    5.243914   0.186625   0.390255  -0.055562  -0.058017  -0.063244
     8  C    0.186625   5.662895  -0.122334   0.002798  -0.093230  -0.053055
     9  C    0.390255  -0.122334   5.674611   0.029110   0.445269  -0.119963
    10  C   -0.055562   0.002798   0.029110   5.268431   0.001725  -0.000108
    11  C   -0.058017  -0.093230   0.445269   0.001725   5.114531   0.366484
    12  C   -0.063244  -0.053055  -0.119963  -0.000108   0.366484   5.158756
    13  C   -0.107634   0.451846  -0.080475   0.000158  -0.104240   0.430499
    14  C   -0.122237   0.009900   0.007483  -0.055945  -0.000090   0.000296
    15  C   -0.005746   0.093601   0.005717   0.000867  -0.000124  -0.020065
    16  C    0.014910  -0.148026  -0.005625   0.003960  -0.000003  -0.000482
    17  C   -0.000115  -0.000221   0.008787  -0.000003  -0.099341  -0.105001
    18  C   -0.013847  -0.001947   0.003701   0.273824   0.001780   0.000149
    19  C    0.000265  -0.023933  -0.000313   0.000361  -0.000009  -0.000006
    20  H   -0.027146  -0.005100   0.292257   0.010306   0.000862   0.001914
    21  H   -0.019097  -0.002383   0.015300   0.367203   0.003427   0.000134
    22  H    0.002522   0.000484  -0.001004   0.362896  -0.000073  -0.000004
    23  H    0.003119  -0.006327   0.000733   0.000005  -0.002915  -0.035881
    24  H   -0.003441   0.000366  -0.000326  -0.000852  -0.000008   0.000003
    25  H   -0.000015  -0.000018  -0.000353   0.000000   0.000101   0.002226
    26  H   -0.000036  -0.000001   0.000536   0.000000   0.004496   0.003585
    27  H   -0.000229  -0.000120  -0.000015  -0.035081   0.000013   0.000000
    28  H    0.002741   0.000105   0.004125  -0.037732   0.000328  -0.000020
    29  H    0.000523   0.000021  -0.000649  -0.027414  -0.000032   0.000000
    30  H    0.000005   0.000050   0.000000   0.000000   0.000000   0.000000
              13         14         15         16         17         18
     1  O    0.001314   0.000001   0.000022  -0.000003   0.260012   0.000002
     2  O   -0.043982   0.000000   0.000249  -0.000002   0.272752   0.000000
     3  O    0.020875   0.001738   0.671480  -0.075562   0.000000   0.000000
     4  O    0.000117  -0.005713   0.004559  -0.030481   0.000000   0.000000
     5  O    0.000018   0.004565  -0.003387  -0.064633   0.000000   0.000004
     6  N    0.010492   0.397480  -0.007427  -0.058308  -0.000002  -0.067253
     7  C   -0.107634  -0.122237  -0.005746   0.014910  -0.000115  -0.013847
     8  C    0.451846   0.009900   0.093601  -0.148026  -0.000221  -0.001947
     9  C   -0.080475   0.007483   0.005717  -0.005625   0.008787   0.003701
    10  C    0.000158  -0.055945   0.000867   0.003960  -0.000003   0.273824
    11  C   -0.104240  -0.000090  -0.000124  -0.000003  -0.099341   0.001780
    12  C    0.430499   0.000296  -0.020065  -0.000482  -0.105001   0.000149
    13  C    5.693028   0.002873  -0.059950  -0.019997   0.005837  -0.000081
    14  C    0.002873   5.517639  -0.073450   0.314694   0.000000  -0.005766
    15  C   -0.059950  -0.073450   5.207031   0.048656  -0.000010   0.000052
    16  C   -0.019997   0.314694   0.048656   5.848064   0.000000  -0.000675
    17  C    0.005837   0.000000  -0.000010   0.000000   5.140447   0.000002
    18  C   -0.000081  -0.005766   0.000052  -0.000675   0.000002   5.411204
    19  C    0.000277  -0.030001  -0.031690   0.087207   0.000000   0.000012
    20  H    0.000885   0.000662  -0.000058   0.000006  -0.000332  -0.005357
    21  H   -0.000099   0.002815  -0.000030   0.000045   0.000001  -0.043264
    22  H    0.000026   0.002776  -0.000062   0.000409   0.000000  -0.039646
    23  H    0.309594  -0.000126   0.000975   0.002390  -0.000327   0.000000
    24  H    0.000076   0.313346   0.003533  -0.012379   0.000000  -0.000662
    25  H   -0.000015   0.000000   0.000000   0.000000   0.340088   0.000000
    26  H    0.000316   0.000000   0.000001   0.000000   0.331640   0.000000
    27  H   -0.000002   0.003952   0.000013   0.000094   0.000000   0.375647
    28  H    0.000030  -0.000129   0.000006  -0.000019   0.000000   0.371944
    29  H    0.000000  -0.000063   0.000000  -0.000001   0.000000   0.367042
    30  H   -0.000003  -0.000311   0.001431   0.005136   0.000000   0.000000
              19         20         21         22         23         24
     1  O    0.000000  -0.001242  -0.000002   0.000000  -0.000117   0.000000
     2  O    0.000000  -0.000144   0.000000   0.000000  -0.000289   0.000000
     3  O   -0.008000   0.000000   0.000000   0.000000   0.011439  -0.000055
     4  O    0.257847   0.000000   0.000000   0.000000   0.000000   0.000331
     5  O    0.590515   0.000000   0.000000   0.000003   0.000000   0.012632
     6  N    0.008671  -0.004338  -0.039350  -0.040482  -0.000057  -0.037408
     7  C    0.000265  -0.027146  -0.019097   0.002522   0.003119  -0.003441
     8  C   -0.023933  -0.005100  -0.002383   0.000484  -0.006327   0.000366
     9  C   -0.000313   0.292257   0.015300  -0.001004   0.000733  -0.000326
    10  C    0.000361   0.010306   0.367203   0.362896   0.000005  -0.000852
    11  C   -0.000009   0.000862   0.003427  -0.000073  -0.002915  -0.000008
    12  C   -0.000006   0.001914   0.000134  -0.000004  -0.035881   0.000003
    13  C    0.000277   0.000885  -0.000099   0.000026   0.309594   0.000076
    14  C   -0.030001   0.000662   0.002815   0.002776  -0.000126   0.313346
    15  C   -0.031690  -0.000058  -0.000030  -0.000062   0.000975   0.003533
    16  C    0.087207   0.000006   0.000045   0.000409   0.002390  -0.012379
    17  C    0.000000  -0.000332   0.000001   0.000000  -0.000327   0.000000
    18  C    0.000012  -0.005357  -0.043264  -0.039646   0.000000  -0.000662
    19  C    4.976062   0.000000   0.000004   0.000010  -0.000008  -0.005495
    20  H    0.000000   0.477031   0.003859   0.000136   0.000009   0.000003
    21  H    0.000004   0.003859   0.512802  -0.028896   0.000000   0.000217
    22  H    0.000010   0.000136  -0.028896   0.509844   0.000000   0.003029
    23  H   -0.000008   0.000009   0.000000   0.000000   0.418367   0.000000
    24  H   -0.005495   0.000003   0.000217   0.003029   0.000000   0.449393
    25  H    0.000000   0.000000   0.000000   0.000000   0.000001   0.000000
    26  H    0.000000   0.000005   0.000000   0.000000   0.000004   0.000000
    27  H    0.000013   0.000076   0.003173  -0.004223   0.000000  -0.000085
    28  H    0.000000   0.000251  -0.003836   0.003159   0.000000   0.000008
    29  H    0.000000   0.000108  -0.001014  -0.000937   0.000000   0.000004
    30  H   -0.029218   0.000000   0.000000   0.000000   0.000000   0.000001
              25         26         27         28         29         30
     1  O   -0.039490  -0.046880   0.000000   0.000000   0.000000   0.000000
     2  O   -0.041357  -0.047762   0.000000   0.000000   0.000000   0.000000
     3  O    0.000000   0.000000   0.000000   0.000000   0.000000   0.000321
     4  O    0.000000   0.000000   0.000000   0.000000   0.000000   0.249475
     5  O    0.000000   0.000000   0.000001   0.000000   0.000000   0.003064
     6  N    0.000000   0.000000  -0.003728  -0.003419   0.004584   0.000001
     7  C   -0.000015  -0.000036  -0.000229   0.002741   0.000523   0.000005
     8  C   -0.000018  -0.000001  -0.000120   0.000105   0.000021   0.000050
     9  C   -0.000353   0.000536  -0.000015   0.004125  -0.000649   0.000000
    10  C    0.000000   0.000000  -0.035081  -0.037732  -0.027414   0.000000
    11  C    0.000101   0.004496   0.000013   0.000328  -0.000032   0.000000
    12  C    0.002226   0.003585   0.000000  -0.000020   0.000000   0.000000
    13  C   -0.000015   0.000316  -0.000002   0.000030   0.000000  -0.000003
    14  C    0.000000   0.000000   0.003952  -0.000129  -0.000063  -0.000311
    15  C    0.000000   0.000001   0.000013   0.000006   0.000000   0.001431
    16  C    0.000000   0.000000   0.000094  -0.000019  -0.000001   0.005136
    17  C    0.340088   0.331640   0.000000   0.000000   0.000000   0.000000
    18  C    0.000000   0.000000   0.375647   0.371944   0.367042   0.000000
    19  C    0.000000   0.000000   0.000013   0.000000   0.000000  -0.029218
    20  H    0.000000   0.000005   0.000076   0.000251   0.000108   0.000000
    21  H    0.000000   0.000000   0.003173  -0.003836  -0.001014   0.000000
    22  H    0.000000   0.000000  -0.004223   0.003159  -0.000937   0.000000
    23  H    0.000001   0.000004   0.000000   0.000000   0.000000   0.000000
    24  H    0.000000   0.000000  -0.000085   0.000008   0.000004   0.000001
    25  H    0.547329  -0.052664   0.000000   0.000000   0.000000   0.000000
    26  H   -0.052664   0.564898   0.000000   0.000000   0.000000   0.000000
    27  H    0.000000   0.000000   0.472431  -0.021007  -0.019174   0.000000
    28  H    0.000000   0.000000  -0.021007   0.471523  -0.019354   0.000000
    29  H    0.000000   0.000000  -0.019174  -0.019354   0.471552   0.000000
    30  H    0.000000   0.000000   0.000000   0.000000   0.000000   0.363123
 Mulliken charges:
               1
     1  O   -0.333776
     2  O   -0.328240
     3  O   -0.290383
     4  O   -0.451534
     5  O   -0.356847
     6  N   -0.212569
     7  C    0.400023
     8  C    0.189222
     9  C   -0.443970
    10  C   -0.354679
    11  C    0.199387
    12  C    0.231896
    13  C   -0.511780
    14  C   -0.286389
    15  C    0.163808
    16  C    0.090625
    17  C   -0.154216
    18  C   -0.626864
    19  C    0.207429
    20  H    0.255344
    21  H    0.228993
    22  H    0.230033
    23  H    0.299411
    24  H    0.277768
    25  H    0.244165
    26  H    0.241863
    27  H    0.228251
    28  H    0.231295
    29  H    0.224807
    30  H    0.406925
 Sum of Mulliken charges =   0.00000
 Mulliken charges with hydrogens summed into heavy atoms:
               1
     1  O   -0.333776
     2  O   -0.328240
     3  O   -0.290383
     4  O   -0.044608
     5  O   -0.356847
     6  N   -0.212569
     7  C    0.400023
     8  C    0.189222
     9  C   -0.188626
    10  C    0.104347
    11  C    0.199387
    12  C    0.231896
    13  C   -0.212369
    14  C   -0.008621
    15  C    0.163808
    16  C    0.090625
    17  C    0.331812
    18  C    0.057489
    19  C    0.207429
 Electronic spatial extent (au):  <R**2>=           5550.7352
 Charge=              0.0000 electrons
 Dipole moment (field-independent basis, Debye):
    X=              4.1252    Y=              6.0877    Z=             -0.6493  Tot=              7.3823
 Quadrupole moment (field-independent basis, Debye-Ang):
   XX=           -103.0626   YY=           -108.0362   ZZ=           -108.0965
   XY=             -2.9426   XZ=             -1.1563   YZ=              0.6025
 Traceless Quadrupole moment (field-independent basis, Debye-Ang):
   XX=              3.3358   YY=             -1.6377   ZZ=             -1.6981
   XY=             -2.9426   XZ=             -1.1563   YZ=              0.6025
 Octapole moment (field-independent basis, Debye-Ang**2):
  XXX=            103.7241  YYY=             78.0020  ZZZ=              1.6530  XYY=            -16.2142
  XXY=            -67.5251  XXZ=              4.0830  XZZ=              0.0292  YZZ=             -1.4784
  YYZ=             -6.9913  XYZ=              2.1995
 Hexadecapole moment (field-independent basis, Debye-Ang**3):
 XXXX=          -4284.1317 YYYY=          -1893.4925 ZZZZ=           -188.9726 XXXY=            225.7604
 XXXZ=            -49.2405 YYYX=            -13.5754 YYYZ=             -4.6528 ZZZX=             -2.7103
 ZZZY=             -2.2677 XXYY=          -1125.4611 XXZZ=           -814.0644 YYZZ=           -354.0175
 XXYZ=             10.9439 YYXZ=              1.5804 ZZXY=              0.4577
 N-N= 1.402853709029D+03 E-N=-4.984002465875D+03  KE= 9.277554654439D+02
 1\1\GINC-NODE045\FOpt\RM06\LANL2DZ\C13H11N1O5\SUPERCOMPUTO1\22-Aug-202
 0\0\\#opt M06/lanl2dz integral=ultrafine geom=connectivity\\Title Card
  Required\\0,1\O,4.0801278677,0.5630011404,-0.1067846138\O,3.743991333
 1,-1.744520202,0.1854900481\O,-1.3486638858,-2.5748252206,0.2250702813
 \O,-4.0501177785,-1.9812316789,0.1201384798\O,-4.6313726598,0.19895214
 53,-0.1500674732\N,-0.751163732,1.4953753008,-0.3045173156\C,0.3685254
 762,0.6497067062,-0.1710039628\C,0.1514274333,-0.7386634641,0.00371081
 39\C,1.6840541393,1.1818922814,-0.2213927619\C,-0.5966440708,2.9605161
 461,-0.4279681093\C,2.7195629738,0.2838227546,-0.1001907842\C,2.511155
 3522,-1.0961403827,0.0713741834\C,1.2477126291,-1.6268515299,0.1285394
 944\C,-2.0030712268,0.9741756326,-0.238379156\C,-1.2122354236,-1.33886
 21109,0.0679613599\C,-2.2960013861,-0.3628540046,-0.0656208381\C,4.768
 1596499,-0.7303208264,-0.0252387779\C,-0.3697547157,3.6247569279,0.931
 0627581\C,-3.7371352698,-0.6643358582,-0.0384333261\H,1.89064851,2.237
 5622039,-0.3446540404\H,0.2199850906,3.1744731386,-1.1249709691\H,-1.5
 109528791,3.3458446512,-0.8899526429\H,1.0394306812,-2.682778272,0.263
 7831925\H,-2.8318289813,1.6730794113,-0.3326629199\H,5.450501958,-0.71
 76837326,0.8269161221\H,5.2840610198,-0.9188945853,-0.9719880844\H,-1.
 2226763264,3.4367751752,1.5921437662\H,0.5295225562,3.2382237755,1.422
 2057306\H,-0.2586079684,4.707154247,0.8130217143\H,-5.0268613665,-2.08
 91387698,0.1271308311\\Version=ES64L-G09RevD.01\State=1-A\HF=-932.1638
 219\RMSD=6.591e-09\RMSF=2.725e-06\Dipole=1.6226228,2.3952767,-0.255889
 2\Quadrupole=2.4861339,-1.2178055,-1.2683284,-2.1888656,-0.8465583,0.4
 421331\PG=C01 [X(C13H11N1O5)]\\@


 There ain't no surer way to find out whether you
 like people or hate them than to travel with them.
                                     -- Mark Twain
 Job cpu time:       0 days  2 hours 47 minutes 32.9 seconds.
 File lengths (MBytes):  RWF=     26 Int=      0 D2E=      0 Chk=      4 Scr=      1
 Normal termination of Gaussian 09 at Sat Aug 22 21:52:39 2020.
