 Entering Gaussian System, Link 0=g09
 Input=sitafloxacina.gjf
 Output=sitafloxacina.log
 Initial command:
 /usr/local/cluster_programs/g09/l1.exe "/tmp/scratch/64212.prometeo/Gau-14829.inp" -scrdir="/tmp/scratch/64212.prometeo/"
 Entering Link 1 = /usr/local/cluster_programs/g09/l1.exe PID=     14830.
  
 Copyright (c) 1988,1990,1992,1993,1995,1998,2003,2009,2013,
            Gaussian, Inc.  All Rights Reserved.
  
 This is part of the Gaussian(R) 09 program.  It is based on
 the Gaussian(R) 03 system (copyright 2003, Gaussian, Inc.),
 the Gaussian(R) 98 system (copyright 1998, Gaussian, Inc.),
 the Gaussian(R) 94 system (copyright 1995, Gaussian, Inc.),
 the Gaussian 92(TM) system (copyright 1992, Gaussian, Inc.),
 the Gaussian 90(TM) system (copyright 1990, Gaussian, Inc.),
 the Gaussian 88(TM) system (copyright 1988, Gaussian, Inc.),
 the Gaussian 86(TM) system (copyright 1986, Carnegie Mellon
 University), and the Gaussian 82(TM) system (copyright 1983,
 Carnegie Mellon University). Gaussian is a federally registered
 trademark of Gaussian, Inc.
  
 This software contains proprietary and confidential information,
 including trade secrets, belonging to Gaussian, Inc.
  
 This software is provided under written license and may be
 used, copied, transmitted, or stored only in accord with that
 written license.
  
 The following legend is applicable only to US Government
 contracts under FAR:
  
                    RESTRICTED RIGHTS LEGEND
  
 Use, reproduction and disclosure by the US Government is
 subject to restrictions as set forth in subparagraphs (a)
 and (c) of the Commercial Computer Software - Restricted
 Rights clause in FAR 52.227-19.
  
 Gaussian, Inc.
 340 Quinnipiac St., Bldg. 40, Wallingford CT 06492
  
  
 ---------------------------------------------------------------
 Warning -- This program may not be used in any manner that
 competes with the business of Gaussian, Inc. or will provide
 assistance to any competitor of Gaussian, Inc.  The licensee
 of this program is prohibited from giving any competitor of
 Gaussian, Inc. access to this program.  By using this program,
 the user acknowledges that Gaussian, Inc. is engaged in the
 business of creating and licensing software in the field of
 computational chemistry and represents and warrants to the
 licensee that it is not a competitor of Gaussian, Inc. and that
 it will not use this program in any manner prohibited above.
 ---------------------------------------------------------------
  

 Cite this work as:
 Gaussian 09, Revision D.01,
 M. J. Frisch, G. W. Trucks, H. B. Schlegel, G. E. Scuseria, 
 M. A. Robb, J. R. Cheeseman, G. Scalmani, V. Barone, B. Mennucci, 
 G. A. Petersson, H. Nakatsuji, M. Caricato, X. Li, H. P. Hratchian, 
 A. F. Izmaylov, J. Bloino, G. Zheng, J. L. Sonnenberg, M. Hada, 
 M. Ehara, K. Toyota, R. Fukuda, J. Hasegawa, M. Ishida, T. Nakajima, 
 Y. Honda, O. Kitao, H. Nakai, T. Vreven, J. A. Montgomery, Jr., 
 J. E. Peralta, F. Ogliaro, M. Bearpark, J. J. Heyd, E. Brothers, 
 K. N. Kudin, V. N. Staroverov, T. Keith, R. Kobayashi, J. Normand, 
 K. Raghavachari, A. Rendell, J. C. Burant, S. S. Iyengar, J. Tomasi, 
 M. Cossi, N. Rega, J. M. Millam, M. Klene, J. E. Knox, J. B. Cross, 
 V. Bakken, C. Adamo, J. Jaramillo, R. Gomperts, R. E. Stratmann, 
 O. Yazyev, A. J. Austin, R. Cammi, C. Pomelli, J. W. Ochterski, 
 R. L. Martin, K. Morokuma, V. G. Zakrzewski, G. A. Voth, 
 P. Salvador, J. J. Dannenberg, S. Dapprich, A. D. Daniels, 
 O. Farkas, J. B. Foresman, J. V. Ortiz, J. Cioslowski, 
 and D. J. Fox, Gaussian, Inc., Wallingford CT, 2013.
 
 ******************************************
 Gaussian 09:  ES64L-G09RevD.01 24-Apr-2013
                21-Jul-2020 
 ******************************************
 %nprocshared=20
 Will use up to   20 processors via shared memory.
 -----------------------------------------------------
 #opt M06/lanl2dz integral=ultrafine geom=connectivity
 -----------------------------------------------------
 1/14=-1,18=20,19=15,26=4,38=1,57=2/1,3;
 2/9=110,12=2,17=6,18=5,40=1/2;
 3/5=6,6=3,11=2,16=1,25=1,30=1,71=1,74=-54,75=-5/1,2,3;
 4//1;
 5/5=2,38=5/2;
 6/7=2,8=2,9=2,10=2,28=1/1;
 7//1,2,3,16;
 1/14=-1,18=20,19=15,26=4/3(2);
 2/9=110/2;
 99//99;
 2/9=110/2;
 3/5=6,6=3,11=2,16=1,25=1,30=1,71=1,74=-54,75=-5/1,2,3;
 4/5=5,16=3,69=1/1;
 5/5=2,38=5/2;
 7//1,2,3,16;
 1/14=-1,18=20,19=15,26=4/3(-5);
 2/9=110/2;
 6/7=2,8=2,9=2,10=2,19=2,28=1/1;
 99/9=1/99;
 -------------------
 Title Card Required
 -------------------
 Symbolic Z-matrix:
 Charge =  0 Multiplicity = 1
 Cl(PDBName=Cl1,ResName=MOL,ResNum=1) 0    -0.8121    1.93888  -1.05561  L 
 F(PDBName=F2,ResName=MOL,ResNum=1) 0     1.02717   1.99228   2.00635  L 
 F(PDBName=F3,ResName=MOL,ResNum=1) 0    -1.71164  -2.81477   0.69145  L 
 O(PDBName=O4,ResName=MOL,ResNum=1) 0     3.1916   -2.90603   0.31083  L 
 O(PDBName=O5,ResName=MOL,ResNum=1) 0     5.74349  -2.15361  -0.27306  L 
 O(PDBName=O6,ResName=MOL,ResNum=1) 0     6.13741   0.05553  -0.69215  L 
 N(PDBName=N7,ResName=MOL,ResNum=1) 0    -2.5854   -0.24376  -0.07926  L 
 N(PDBName=N8,ResName=MOL,ResNum=1) 0    -4.55304   1.75072  -1.01507  L 
 N(PDBName=N9,ResName=MOL,ResNum=1) 0     2.18162   1.05654  -0.34893  L 
 C(PDBName=C10,ResName=MOL,ResNum=1) 0    -4.92493  -0.58921  -0.11185  L 
 C(PDBName=C11,ResName=MOL,ResNum=1) 0    -6.27574  -1.06919  -0.59188  L 
 C(PDBName=C12,ResName=MOL,ResNum=1) 0    -5.81119  -1.38131   0.83565  L 
 C(PDBName=C13,ResName=MOL,ResNum=1) 0    -4.63219   0.88799   0.18132  L 
 C(PDBName=C14,ResName=MOL,ResNum=1) 0    -3.61614  -1.19031  -0.62072  L 
 C(PDBName=C15,ResName=MOL,ResNum=1) 0    -3.22372   0.79202   0.79573  L 
 C(PDBName=C16,ResName=MOL,ResNum=1) 0    -1.23624  -0.56167   0.00174  L 
 C(PDBName=C17,ResName=MOL,ResNum=1) 0     1.9763    2.49768  -0.22312  L 
 C(PDBName=C18,ResName=MOL,ResNum=1) 0     1.37375   2.97357   1.079    L 
 C(PDBName=C19,ResName=MOL,ResNum=1) 0     2.83556   3.21821   0.83075  L 
 C(PDBName=C20,ResName=MOL,ResNum=1) 0    -0.22898   0.37378  -0.29257  L 
 C(PDBName=C21,ResName=MOL,ResNum=1) 0     1.14694   0.10998  -0.17125  L 
 C(PDBName=C22,ResName=MOL,ResNum=1) 0    -0.78295  -1.85616   0.35427  L 
 C(PDBName=C23,ResName=MOL,ResNum=1) 0     1.52133  -1.22705   0.08812  L 
 C(PDBName=C24,ResName=MOL,ResNum=1) 0     0.54356  -2.18915   0.34435  L 
 C(PDBName=C25,ResName=MOL,ResNum=1) 0     3.47408   0.62041  -0.43271  L 
 C(PDBName=C26,ResName=MOL,ResNum=1) 0     2.93418  -1.71251   0.06728  L 
 C(PDBName=C27,ResName=MOL,ResNum=1) 0     3.88945  -0.66747  -0.27568  L 
 C(PDBName=C28,ResName=MOL,ResNum=1) 0     5.34059  -0.85475  -0.43595  L 
 H(PDBName=H29,ResName=MOL,ResNum=1) 0    -7.06211  -0.33141  -0.7152   L 
 H(PDBName=H30,ResName=MOL,ResNum=1) 0    -6.30229  -1.88851  -1.30211  L 
 H(PDBName=H31,ResName=MOL,ResNum=1) 0    -5.52627  -2.40277   1.06032  L 
 H(PDBName=H32,ResName=MOL,ResNum=1) 0    -6.28871  -0.84326   1.64735  L 
 H(PDBName=H33,ResName=MOL,ResNum=1) 0    -5.35567   1.30385   0.88974  L 
 H(PDBName=H34,ResName=MOL,ResNum=1) 0    -3.46147  -2.20632  -0.26113  L 
 H(PDBName=H35,ResName=MOL,ResNum=1) 0    -3.57259  -1.17931  -1.71692  L 
 H(PDBName=H36,ResName=MOL,ResNum=1) 0    -2.69866   1.74371   0.72824  L 
 H(PDBName=H37,ResName=MOL,ResNum=1) 0    -3.27161   0.44941   1.83718  L 
 H(PDBName=H38,ResName=MOL,ResNum=1) 0    -5.38957   1.66325  -1.60064  L 
 H(PDBName=H39,ResName=MOL,ResNum=1) 0    -3.71617   1.52045  -1.56052  L 
 H(PDBName=H40,ResName=MOL,ResNum=1) 0     1.71563   3.02421  -1.12967  L 
 H(PDBName=H41,ResName=MOL,ResNum=1) 0     0.6716    3.79623   1.03773  L 
 H(PDBName=H42,ResName=MOL,ResNum=1) 0     3.51892   2.60048   1.4      L 
 H(PDBName=H43,ResName=MOL,ResNum=1) 0     3.16663   4.2241    0.60777  L 
 H(PDBName=H44,ResName=MOL,ResNum=1) 0     0.87752  -3.19367   0.56691  L 
 H(PDBName=H45,ResName=MOL,ResNum=1) 0     4.22373   1.37766  -0.62318  L 
 H(PDBName=H46,ResName=MOL,ResNum=1) 0     6.73271  -2.17746  -0.39769  L 
 
 Center=     -0.62642626      0.09415809      0.03120002
 Residue   1 PDB Number     1_0 MOL charge    0.00000000 layers R        AvRTP=      0.00000000      0.00000000      0.00000000

 GradGradGradGradGradGradGradGradGradGradGradGradGradGradGradGradGradGrad
 Berny optimization.
 Initialization pass.
                           ----------------------------
                           !    Initial Parameters    !
                           ! (Angstroms and Degrees)  !
 --------------------------                            --------------------------
 ! Name  Definition              Value          Derivative Info.                !
 --------------------------------------------------------------------------------
 ! R1    R(1,20)                 1.8362         estimate D2E/DX2                !
 ! R2    R(2,18)                 1.3939         estimate D2E/DX2                !
 ! R3    R(3,22)                 1.3766         estimate D2E/DX2                !
 ! R4    R(4,26)                 1.245          estimate D2E/DX2                !
 ! R5    R(5,28)                 1.3696         estimate D2E/DX2                !
 ! R6    R(5,46)                 0.9973         estimate D2E/DX2                !
 ! R7    R(6,28)                 1.2366         estimate D2E/DX2                !
 ! R8    R(7,14)                 1.5005         estimate D2E/DX2                !
 ! R9    R(7,15)                 1.4986         estimate D2E/DX2                !
 ! R10   R(7,16)                 1.3885         estimate D2E/DX2                !
 ! R11   R(8,13)                 1.4771         estimate D2E/DX2                !
 ! R12   R(8,38)                 1.0249         estimate D2E/DX2                !
 ! R13   R(8,39)                 1.0251         estimate D2E/DX2                !
 ! R14   R(9,17)                 1.4611         estimate D2E/DX2                !
 ! R15   R(9,21)                 1.4136         estimate D2E/DX2                !
 ! R16   R(9,25)                 1.3666         estimate D2E/DX2                !
 ! R17   R(10,11)                1.5118         estimate D2E/DX2                !
 ! R18   R(10,12)                1.5201         estimate D2E/DX2                !
 ! R19   R(10,13)                1.5342         estimate D2E/DX2                !
 ! R20   R(10,14)                1.5275         estimate D2E/DX2                !
 ! R21   R(11,12)                1.5333         estimate D2E/DX2                !
 ! R22   R(11,29)                1.0853         estimate D2E/DX2                !
 ! R23   R(11,30)                1.0846         estimate D2E/DX2                !
 ! R24   R(12,31)                1.084          estimate D2E/DX2                !
 ! R25   R(12,32)                1.0846         estimate D2E/DX2                !
 ! R26   R(13,15)                1.5396         estimate D2E/DX2                !
 ! R27   R(13,33)                1.0946         estimate D2E/DX2                !
 ! R28   R(14,34)                1.0888         estimate D2E/DX2                !
 ! R29   R(14,35)                1.0971         estimate D2E/DX2                !
 ! R30   R(15,36)                1.089          estimate D2E/DX2                !
 ! R31   R(15,37)                1.0974         estimate D2E/DX2                !
 ! R32   R(16,20)                1.4058         estimate D2E/DX2                !
 ! R33   R(16,22)                1.4161         estimate D2E/DX2                !
 ! R34   R(17,18)                1.5116         estimate D2E/DX2                !
 ! R35   R(17,19)                1.5389         estimate D2E/DX2                !
 ! R36   R(17,40)                1.0803         estimate D2E/DX2                !
 ! R37   R(18,19)                1.5028         estimate D2E/DX2                !
 ! R38   R(18,41)                1.0823         estimate D2E/DX2                !
 ! R39   R(19,42)                1.0829         estimate D2E/DX2                !
 ! R40   R(19,43)                1.0822         estimate D2E/DX2                !
 ! R41   R(20,21)                1.4062         estimate D2E/DX2                !
 ! R42   R(21,23)                1.4125         estimate D2E/DX2                !
 ! R43   R(22,24)                1.3677         estimate D2E/DX2                !
 ! R44   R(23,24)                1.3955         estimate D2E/DX2                !
 ! R45   R(23,26)                1.4941         estimate D2E/DX2                !
 ! R46   R(24,44)                1.0817         estimate D2E/DX2                !
 ! R47   R(25,27)                1.3623         estimate D2E/DX2                !
 ! R48   R(25,45)                1.0824         estimate D2E/DX2                !
 ! R49   R(26,27)                1.4568         estimate D2E/DX2                !
 ! R50   R(27,28)                1.4719         estimate D2E/DX2                !
 ! A1    A(28,5,46)            107.4326         estimate D2E/DX2                !
 ! A2    A(14,7,15)            110.7376         estimate D2E/DX2                !
 ! A3    A(14,7,16)            122.9622         estimate D2E/DX2                !
 ! A4    A(15,7,16)            122.5518         estimate D2E/DX2                !
 ! A5    A(13,8,38)            111.6656         estimate D2E/DX2                !
 ! A6    A(13,8,39)            110.09           estimate D2E/DX2                !
 ! A7    A(38,8,39)            110.0694         estimate D2E/DX2                !
 ! A8    A(17,9,21)            123.1475         estimate D2E/DX2                !
 ! A9    A(17,9,25)            116.9329         estimate D2E/DX2                !
 ! A10   A(21,9,25)            119.0945         estimate D2E/DX2                !
 ! A11   A(11,10,13)           122.4707         estimate D2E/DX2                !
 ! A12   A(11,10,14)           122.3348         estimate D2E/DX2                !
 ! A13   A(12,10,13)           119.5956         estimate D2E/DX2                !
 ! A14   A(12,10,14)           120.143          estimate D2E/DX2                !
 ! A15   A(13,10,14)           106.2046         estimate D2E/DX2                !
 ! A16   A(10,11,29)           117.8821         estimate D2E/DX2                !
 ! A17   A(10,11,30)           118.0106         estimate D2E/DX2                !
 ! A18   A(12,11,29)           117.6243         estimate D2E/DX2                !
 ! A19   A(12,11,30)           117.5997         estimate D2E/DX2                !
 ! A20   A(29,11,30)           114.9206         estimate D2E/DX2                !
 ! A21   A(10,12,31)           117.838          estimate D2E/DX2                !
 ! A22   A(10,12,32)           117.6888         estimate D2E/DX2                !
 ! A23   A(11,12,31)           117.672          estimate D2E/DX2                !
 ! A24   A(11,12,32)           117.5408         estimate D2E/DX2                !
 ! A25   A(31,12,32)           115.3455         estimate D2E/DX2                !
 ! A26   A(8,13,10)            114.6968         estimate D2E/DX2                !
 ! A27   A(8,13,15)            108.0955         estimate D2E/DX2                !
 ! A28   A(8,13,33)            109.7369         estimate D2E/DX2                !
 ! A29   A(10,13,15)           100.9993         estimate D2E/DX2                !
 ! A30   A(10,13,33)           111.3054         estimate D2E/DX2                !
 ! A31   A(15,13,33)           111.7184         estimate D2E/DX2                !
 ! A32   A(7,14,10)            102.7158         estimate D2E/DX2                !
 ! A33   A(7,14,34)            111.8323         estimate D2E/DX2                !
 ! A34   A(7,14,35)            109.0841         estimate D2E/DX2                !
 ! A35   A(10,14,34)           112.2652         estimate D2E/DX2                !
 ! A36   A(10,14,35)           111.2799         estimate D2E/DX2                !
 ! A37   A(34,14,35)           109.4941         estimate D2E/DX2                !
 ! A38   A(7,15,13)            101.5212         estimate D2E/DX2                !
 ! A39   A(7,15,36)            111.2508         estimate D2E/DX2                !
 ! A40   A(7,15,37)            110.9098         estimate D2E/DX2                !
 ! A41   A(13,15,36)           111.2145         estimate D2E/DX2                !
 ! A42   A(13,15,37)           110.9926         estimate D2E/DX2                !
 ! A43   A(36,15,37)           110.6522         estimate D2E/DX2                !
 ! A44   A(7,16,20)            122.1168         estimate D2E/DX2                !
 ! A45   A(7,16,22)            122.3335         estimate D2E/DX2                !
 ! A46   A(20,16,22)           115.533          estimate D2E/DX2                !
 ! A47   A(9,17,18)            116.1483         estimate D2E/DX2                !
 ! A48   A(9,17,19)            116.2521         estimate D2E/DX2                !
 ! A49   A(9,17,40)            116.2564         estimate D2E/DX2                !
 ! A50   A(18,17,40)           118.2446         estimate D2E/DX2                !
 ! A51   A(19,17,40)           118.7647         estimate D2E/DX2                !
 ! A52   A(2,18,17)            116.7793         estimate D2E/DX2                !
 ! A53   A(2,18,19)            117.7982         estimate D2E/DX2                !
 ! A54   A(2,18,41)            113.5246         estimate D2E/DX2                !
 ! A55   A(17,18,41)           117.7117         estimate D2E/DX2                !
 ! A56   A(19,18,41)           120.0662         estimate D2E/DX2                !
 ! A57   A(17,19,42)           116.4404         estimate D2E/DX2                !
 ! A58   A(17,19,43)           117.7054         estimate D2E/DX2                !
 ! A59   A(18,19,42)           115.731          estimate D2E/DX2                !
 ! A60   A(18,19,43)           118.8778         estimate D2E/DX2                !
 ! A61   A(42,19,43)           116.4544         estimate D2E/DX2                !
 ! A62   A(1,20,16)            115.2538         estimate D2E/DX2                !
 ! A63   A(1,20,21)            120.4285         estimate D2E/DX2                !
 ! A64   A(16,20,21)           123.9294         estimate D2E/DX2                !
 ! A65   A(9,21,20)            125.4318         estimate D2E/DX2                !
 ! A66   A(9,21,23)            117.5765         estimate D2E/DX2                !
 ! A67   A(20,21,23)           116.9214         estimate D2E/DX2                !
 ! A68   A(3,22,16)            118.7877         estimate D2E/DX2                !
 ! A69   A(3,22,24)            119.113          estimate D2E/DX2                !
 ! A70   A(16,22,24)           122.0865         estimate D2E/DX2                !
 ! A71   A(21,23,24)           120.0408         estimate D2E/DX2                !
 ! A72   A(21,23,26)           123.7558         estimate D2E/DX2                !
 ! A73   A(24,23,26)           116.1761         estimate D2E/DX2                !
 ! A74   A(22,24,23)           120.8669         estimate D2E/DX2                !
 ! A75   A(22,24,44)           121.6036         estimate D2E/DX2                !
 ! A76   A(23,24,44)           117.4964         estimate D2E/DX2                !
 ! A77   A(9,25,27)            125.6611         estimate D2E/DX2                !
 ! A78   A(9,25,45)            116.2634         estimate D2E/DX2                !
 ! A79   A(27,25,45)           118.0658         estimate D2E/DX2                !
 ! A80   A(4,26,23)            120.2832         estimate D2E/DX2                !
 ! A81   A(4,26,27)            126.7376         estimate D2E/DX2                !
 ! A82   A(23,26,27)           112.9723         estimate D2E/DX2                !
 ! A83   A(25,27,26)           120.3561         estimate D2E/DX2                !
 ! A84   A(25,27,28)           114.0998         estimate D2E/DX2                !
 ! A85   A(26,27,28)           125.5095         estimate D2E/DX2                !
 ! A86   A(5,28,6)             122.22           estimate D2E/DX2                !
 ! A87   A(5,28,27)            113.4354         estimate D2E/DX2                !
 ! A88   A(6,28,27)            124.3447         estimate D2E/DX2                !
 ! D1    D(46,5,28,6)            0.0955         estimate D2E/DX2                !
 ! D2    D(46,5,28,27)        -179.8884         estimate D2E/DX2                !
 ! D3    D(15,7,14,10)           4.5594         estimate D2E/DX2                !
 ! D4    D(15,7,14,34)        -116.0267         estimate D2E/DX2                !
 ! D5    D(15,7,14,35)         122.7077         estimate D2E/DX2                !
 ! D6    D(16,7,14,10)         163.1885         estimate D2E/DX2                !
 ! D7    D(16,7,14,34)          42.6024         estimate D2E/DX2                !
 ! D8    D(16,7,14,35)         -78.6632         estimate D2E/DX2                !
 ! D9    D(14,7,15,13)         -28.6985         estimate D2E/DX2                !
 ! D10   D(14,7,15,36)        -147.0916         estimate D2E/DX2                !
 ! D11   D(14,7,15,37)          89.2882         estimate D2E/DX2                !
 ! D12   D(16,7,15,13)         172.5694         estimate D2E/DX2                !
 ! D13   D(16,7,15,36)          54.1763         estimate D2E/DX2                !
 ! D14   D(16,7,15,37)         -69.4439         estimate D2E/DX2                !
 ! D15   D(14,7,16,20)         140.3479         estimate D2E/DX2                !
 ! D16   D(14,7,16,22)         -38.0952         estimate D2E/DX2                !
 ! D17   D(15,7,16,20)         -63.5            estimate D2E/DX2                !
 ! D18   D(15,7,16,22)         118.0569         estimate D2E/DX2                !
 ! D19   D(38,8,13,10)          53.5738         estimate D2E/DX2                !
 ! D20   D(38,8,13,15)         165.3639         estimate D2E/DX2                !
 ! D21   D(38,8,13,33)         -72.5743         estimate D2E/DX2                !
 ! D22   D(39,8,13,10)         -69.0051         estimate D2E/DX2                !
 ! D23   D(39,8,13,15)          42.7849         estimate D2E/DX2                !
 ! D24   D(39,8,13,33)         164.8467         estimate D2E/DX2                !
 ! D25   D(21,9,17,18)          55.0823         estimate D2E/DX2                !
 ! D26   D(21,9,17,19)         121.6757         estimate D2E/DX2                !
 ! D27   D(21,9,17,40)         -91.018          estimate D2E/DX2                !
 ! D28   D(25,9,17,18)        -114.4029         estimate D2E/DX2                !
 ! D29   D(25,9,17,19)         -47.8094         estimate D2E/DX2                !
 ! D30   D(25,9,17,40)          99.4968         estimate D2E/DX2                !
 ! D31   D(17,9,21,20)          22.0973         estimate D2E/DX2                !
 ! D32   D(17,9,21,23)        -161.0559         estimate D2E/DX2                !
 ! D33   D(25,9,21,20)        -168.6333         estimate D2E/DX2                !
 ! D34   D(25,9,21,23)           8.2135         estimate D2E/DX2                !
 ! D35   D(17,9,25,27)         165.5094         estimate D2E/DX2                !
 ! D36   D(17,9,25,45)         -13.3301         estimate D2E/DX2                !
 ! D37   D(21,9,25,27)          -4.4203         estimate D2E/DX2                !
 ! D38   D(21,9,25,45)         176.7402         estimate D2E/DX2                !
 ! D39   D(13,10,11,29)         -0.9079         estimate D2E/DX2                !
 ! D40   D(13,10,11,30)        144.3162         estimate D2E/DX2                !
 ! D41   D(14,10,11,29)       -143.4982         estimate D2E/DX2                !
 ! D42   D(14,10,11,30)          1.7259         estimate D2E/DX2                !
 ! D43   D(13,10,12,31)       -139.7577         estimate D2E/DX2                !
 ! D44   D(13,10,12,32)          5.712          estimate D2E/DX2                !
 ! D45   D(14,10,12,31)         -5.2552         estimate D2E/DX2                !
 ! D46   D(14,10,12,32)        140.2145         estimate D2E/DX2                !
 ! D47   D(11,10,13,8)         -71.1081         estimate D2E/DX2                !
 ! D48   D(11,10,13,15)        172.9374         estimate D2E/DX2                !
 ! D49   D(11,10,13,33)         54.2242         estimate D2E/DX2                !
 ! D50   D(12,10,13,8)        -143.3841         estimate D2E/DX2                !
 ! D51   D(12,10,13,15)        100.6614         estimate D2E/DX2                !
 ! D52   D(12,10,13,33)        -18.0518         estimate D2E/DX2                !
 ! D53   D(14,10,13,8)          76.5788         estimate D2E/DX2                !
 ! D54   D(14,10,13,15)        -39.3757         estimate D2E/DX2                !
 ! D55   D(14,10,13,33)       -158.0889         estimate D2E/DX2                !
 ! D56   D(11,10,14,7)         169.6885         estimate D2E/DX2                !
 ! D57   D(11,10,14,34)        -70.0237         estimate D2E/DX2                !
 ! D58   D(11,10,14,35)         53.0995         estimate D2E/DX2                !
 ! D59   D(12,10,14,7)        -117.8254         estimate D2E/DX2                !
 ! D60   D(12,10,14,34)          2.4624         estimate D2E/DX2                !
 ! D61   D(12,10,14,35)        125.5856         estimate D2E/DX2                !
 ! D62   D(13,10,14,7)          21.947          estimate D2E/DX2                !
 ! D63   D(13,10,14,34)        142.2348         estimate D2E/DX2                !
 ! D64   D(13,10,14,35)        -94.642          estimate D2E/DX2                !
 ! D65   D(29,11,12,31)        144.5534         estimate D2E/DX2                !
 ! D66   D(29,11,12,32)         -0.3905         estimate D2E/DX2                !
 ! D67   D(30,11,12,31)          0.4353         estimate D2E/DX2                !
 ! D68   D(30,11,12,32)       -144.5086         estimate D2E/DX2                !
 ! D69   D(8,13,15,7)          -80.4778         estimate D2E/DX2                !
 ! D70   D(8,13,15,36)          37.9413         estimate D2E/DX2                !
 ! D71   D(8,13,15,37)         161.5952         estimate D2E/DX2                !
 ! D72   D(10,13,15,7)          40.2724         estimate D2E/DX2                !
 ! D73   D(10,13,15,36)        158.6915         estimate D2E/DX2                !
 ! D74   D(10,13,15,37)        -77.6546         estimate D2E/DX2                !
 ! D75   D(33,13,15,7)         158.6866         estimate D2E/DX2                !
 ! D76   D(33,13,15,36)        -82.8943         estimate D2E/DX2                !
 ! D77   D(33,13,15,37)         40.7596         estimate D2E/DX2                !
 ! D78   D(7,16,20,1)           -9.8265         estimate D2E/DX2                !
 ! D79   D(7,16,20,21)         177.3207         estimate D2E/DX2                !
 ! D80   D(22,16,20,1)         168.7157         estimate D2E/DX2                !
 ! D81   D(22,16,20,21)         -4.1371         estimate D2E/DX2                !
 ! D82   D(7,16,22,3)           -3.2269         estimate D2E/DX2                !
 ! D83   D(7,16,22,24)         175.4572         estimate D2E/DX2                !
 ! D84   D(20,16,22,3)         178.2344         estimate D2E/DX2                !
 ! D85   D(20,16,22,24)         -3.0814         estimate D2E/DX2                !
 ! D86   D(9,17,18,2)           -2.3907         estimate D2E/DX2                !
 ! D87   D(9,17,18,41)        -142.755          estimate D2E/DX2                !
 ! D88   D(40,17,18,2)         143.0124         estimate D2E/DX2                !
 ! D89   D(40,17,18,41)          2.6481         estimate D2E/DX2                !
 ! D90   D(9,17,19,42)          -0.3998         estimate D2E/DX2                !
 ! D91   D(9,17,19,43)         144.9961         estimate D2E/DX2                !
 ! D92   D(40,17,19,42)       -146.8537         estimate D2E/DX2                !
 ! D93   D(40,17,19,43)         -1.4578         estimate D2E/DX2                !
 ! D94   D(2,18,19,42)           0.1434         estimate D2E/DX2                !
 ! D95   D(2,18,19,43)        -146.0112         estimate D2E/DX2                !
 ! D96   D(41,18,19,42)        145.8903         estimate D2E/DX2                !
 ! D97   D(41,18,19,43)         -0.2644         estimate D2E/DX2                !
 ! D98   D(1,20,21,9)           13.1484         estimate D2E/DX2                !
 ! D99   D(1,20,21,23)        -163.7169         estimate D2E/DX2                !
 ! D100  D(16,20,21,9)        -174.3503         estimate D2E/DX2                !
 ! D101  D(16,20,21,23)          8.7845         estimate D2E/DX2                !
 ! D102  D(9,21,23,24)         176.491          estimate D2E/DX2                !
 ! D103  D(9,21,23,26)          -5.4819         estimate D2E/DX2                !
 ! D104  D(20,21,23,24)         -6.3904         estimate D2E/DX2                !
 ! D105  D(20,21,23,26)        171.6367         estimate D2E/DX2                !
 ! D106  D(3,22,24,23)        -176.0577         estimate D2E/DX2                !
 ! D107  D(3,22,24,44)           1.7964         estimate D2E/DX2                !
 ! D108  D(16,22,24,23)          5.2624         estimate D2E/DX2                !
 ! D109  D(16,22,24,44)       -176.8836         estimate D2E/DX2                !
 ! D110  D(21,23,24,22)         -0.2721         estimate D2E/DX2                !
 ! D111  D(21,23,24,44)       -178.2117         estimate D2E/DX2                !
 ! D112  D(26,23,24,22)       -178.4444         estimate D2E/DX2                !
 ! D113  D(26,23,24,44)          3.616          estimate D2E/DX2                !
 ! D114  D(21,23,26,4)         179.7351         estimate D2E/DX2                !
 ! D115  D(21,23,26,27)         -1.1572         estimate D2E/DX2                !
 ! D116  D(24,23,26,4)          -2.1679         estimate D2E/DX2                !
 ! D117  D(24,23,26,27)        176.9397         estimate D2E/DX2                !
 ! D118  D(9,25,27,26)          -2.7664         estimate D2E/DX2                !
 ! D119  D(9,25,27,28)         179.2589         estimate D2E/DX2                !
 ! D120  D(45,25,27,26)        176.0542         estimate D2E/DX2                !
 ! D121  D(45,25,27,28)         -1.9205         estimate D2E/DX2                !
 ! D122  D(4,26,27,25)        -175.7119         estimate D2E/DX2                !
 ! D123  D(4,26,27,28)           2.0168         estimate D2E/DX2                !
 ! D124  D(23,26,27,25)          5.2497         estimate D2E/DX2                !
 ! D125  D(23,26,27,28)       -177.0217         estimate D2E/DX2                !
 ! D126  D(25,27,28,5)         179.8926         estimate D2E/DX2                !
 ! D127  D(25,27,28,6)          -0.091          estimate D2E/DX2                !
 ! D128  D(26,27,28,5)           2.0396         estimate D2E/DX2                !
 ! D129  D(26,27,28,6)        -177.9439         estimate D2E/DX2                !
 --------------------------------------------------------------------------------
 Trust Radius=3.00D-01 FncErr=1.00D-07 GrdErr=1.00D-06
 Number of steps in this run=    276 maximum allowed number of steps=    276.
 GradGradGradGradGradGradGradGradGradGradGradGradGradGradGradGradGradGrad

                          Input orientation:                          
 ---------------------------------------------------------------------
 Center     Atomic      Atomic             Coordinates (Angstroms)
 Number     Number       Type             X           Y           Z
 ---------------------------------------------------------------------
      1         17           0       -0.812095    1.938882   -1.055606
      2          9           0        1.027169    1.992283    2.006348
      3          9           0       -1.711643   -2.814774    0.691448
      4          8           0        3.191602   -2.906032    0.310834
      5          8           0        5.743489   -2.153614   -0.273062
      6          8           0        6.137407    0.055528   -0.692150
      7          7           0       -2.585395   -0.243755   -0.079263
      8          7           0       -4.553036    1.750723   -1.015067
      9          7           0        2.181624    1.056544   -0.348929
     10          6           0       -4.924930   -0.589210   -0.111845
     11          6           0       -6.275736   -1.069193   -0.591880
     12          6           0       -5.811194   -1.381309    0.835651
     13          6           0       -4.632185    0.887990    0.181320
     14          6           0       -3.616135   -1.190312   -0.620723
     15          6           0       -3.223717    0.792024    0.795731
     16          6           0       -1.236241   -0.561666    0.001739
     17          6           0        1.976300    2.497675   -0.223124
     18          6           0        1.373745    2.973567    1.078999
     19          6           0        2.835557    3.218214    0.830747
     20          6           0       -0.228980    0.373783   -0.292570
     21          6           0        1.146938    0.109977   -0.171251
     22          6           0       -0.782947   -1.856158    0.354273
     23          6           0        1.521328   -1.227053    0.088118
     24          6           0        0.543557   -2.189153    0.344348
     25          6           0        3.474079    0.620409   -0.432714
     26          6           0        2.934178   -1.712508    0.067279
     27          6           0        3.889446   -0.667473   -0.275683
     28          6           0        5.340592   -0.854745   -0.435948
     29          1           0       -7.062108   -0.331412   -0.715195
     30          1           0       -6.302295   -1.888511   -1.302109
     31          1           0       -5.526271   -2.402770    1.060321
     32          1           0       -6.288710   -0.843258    1.647345
     33          1           0       -5.355674    1.303846    0.889743
     34          1           0       -3.461474   -2.206323   -0.261128
     35          1           0       -3.572594   -1.179308   -1.716923
     36          1           0       -2.698663    1.743710    0.728243
     37          1           0       -3.271613    0.449405    1.837178
     38          1           0       -5.389572    1.663252   -1.600640
     39          1           0       -3.716165    1.520446   -1.560518
     40          1           0        1.715629    3.024206   -1.129673
     41          1           0        0.671599    3.796225    1.037726
     42          1           0        3.518921    2.600479    1.399999
     43          1           0        3.166634    4.224104    0.607768
     44          1           0        0.877524   -3.193666    0.566912
     45          1           0        4.223733    1.377661   -0.623183
     46          1           0        6.732714   -2.177458   -0.397685
 ---------------------------------------------------------------------
                    Distance matrix (angstroms):
                    1          2          3          4          5
     1  Cl   0.000000
     2  F    3.572297   0.000000
     3  F    5.143795   5.686638   0.000000
     4  O    6.431947   5.617208   4.918842   0.000000
     5  O    7.767662   6.680408   7.546284   2.723820   0.000000
     6  O    7.209348   6.094870   8.471161   4.295880   2.282787
     7  N    2.976868   4.732891   2.822690   6.372879   8.547247
     8  N    3.745889   6.350275   5.641761   9.133608  11.036886
     9  N    3.200042   2.784906   5.588114   4.142143   4.795597
    10  C    4.919080   6.824832   3.990442   8.451297  10.783715
    11  C    6.254193   8.334017   5.052220   9.686039  12.072257
    12  C    6.292179   7.714588   4.345335   9.146067  11.633417
    13  C    4.150596   6.048014   4.743444   8.696150  10.821850
    14  C    4.224171   6.212140   2.826262   7.082145   9.415486
    15  C    3.249408   4.579983   3.912318   7.420718   9.498941
    16  C    2.747839   3.957795   2.403789   5.019700   7.164248
    17  C    2.963178   2.475241   6.531423   5.564362   5.985708
    18  C    3.225679   1.393919   6.570746   6.201965   6.871005
    19  C    4.301207   2.480970   7.556016   6.156579   6.207334
    20  C    1.836241   3.079363   3.651503   4.777203   6.485253
    21  C    2.822196   2.880861   4.179701   3.675509   5.124694
    22  C    4.048572   4.562496   1.376629   4.111102   6.563261
    23  C    4.095865   3.779937   3.651981   2.378737   4.337696
    24  C    4.564903   4.525542   2.365969   2.743571   5.236578
    25  C    4.527433   3.717315   6.321071   3.615030   3.587606
    26  C    5.350522   4.595884   4.815416   1.245024   2.864024
    27  C    5.431929   4.524886   6.076055   2.417051   2.376152
    28  C    6.785564   5.716292   7.405859   3.063269   1.369642
    29  H    6.658286   8.845494   6.064092  10.621675  12.942149
    30  H    6.697163   8.929025   5.089825   9.683543  12.092565
    31  H    6.749114   7.947266   3.854504   8.764492  11.351100
    32  H    6.711152   7.854378   5.074461   9.793754  12.254746
    33  H    4.983148   6.516244   5.502846   9.545372  11.683217
    34  H    4.983285   6.551157   2.083152   6.714176   9.205122
    35  H    4.216729   6.714131   3.455161   7.269644   9.477521
    36  H    2.603718   3.946792   4.664262   7.515953   9.352095
    37  H    4.078722   4.570407   3.794874   7.440553   9.617738
    38  H    4.618044   7.368391   6.231657   9.908009  11.843816
    39  H    2.977188   5.953518   5.280492   8.415041  10.229434
    40  H    2.751873   3.372458   7.011160   6.278637   6.615683
    41  H    3.167508   2.078188   7.035983   7.197155   7.927346
    42  H    5.022490   2.635600   7.562130   5.622729   5.509014
    43  H    4.880506   3.393282   8.564484   7.136360   6.934791
    44  H    5.641846   5.384091   2.619705   2.345904   5.046274
    45  H    5.085423   4.184521   7.384677   4.504188   3.860330
    46  H    8.619818   7.464540   8.538123   3.684059   0.997329
                    6          7          8          9         10
     6  O    0.000000
     7  N    8.749427   0.000000
     8  N   10.828829   2.953859   0.000000
     9  N    4.094881   4.948532   6.803034   0.000000
    10  C   11.096294   2.365127   2.535626   7.298481   0.000000
    11  C   12.464396   3.816116   3.331472   8.723802   1.511785
    12  C   12.131271   3.540745   3.849382   8.439875   1.520077
    13  C   10.836976   2.353317   1.477131   6.836488   1.534199
    14  C    9.833046   1.500525   3.111748   6.223845   1.527490
    15  C    9.507200   1.498635   2.442372   5.531539   2.371840
    16  C    7.431897   1.388469   4.169193   3.797812   3.690540
    17  C    4.847564   5.324021   6.619467   1.461110   7.560967
    18  C    5.860409   5.231398   6.403686   2.523217   7.333812
    19  C    4.819130   6.496158   7.755763   2.547956   8.695408
    20  C    6.386849   2.445311   4.595152   2.506063   4.797079
    21  C    5.017876   3.750186   5.991142   1.413554   6.112280
    22  C    7.255401   2.456953   5.394280   4.215093   4.356426
    23  C    4.854072   4.226117   6.854346   2.416985   6.480823
    24  C    6.115887   3.708687   6.583760   3.701141   5.715967
    25  C    2.734907   6.130981   8.127196   1.366629   8.491731
    26  C    3.736758   5.713527   8.320085   2.899520   7.940999
    27  C    2.397812   6.491663   8.813051   2.427809   8.816246
    28  C    1.236588   7.957500  10.247327   3.693193  10.274069
    29  H   13.205205   4.522505   3.274241   9.354526   2.235625
    30  H   12.605456   4.244516   4.048003   9.030990   2.236525
    31  H   12.048061   3.822139   4.744041   8.565307   2.241558
    32  H   12.676334   4.129785   4.102407   8.907352   2.240354
    33  H   11.668402   3.317904   2.114764   7.642403   2.184578
    34  H    9.871184   2.156910   4.173505   6.519092   2.186102
    35  H    9.841702   2.128791   3.168430   6.323090   2.180207
    36  H    9.107338   2.148235   2.545168   5.044769   3.332346
    37  H    9.751015   2.150375   3.386853   5.906393   2.758780
    38  H   11.673961   3.716809   1.024861   7.697914   2.739706
    39  H    9.999646   2.566157   1.025133   6.038797   2.830268
    40  H    5.343837   5.502884   6.397738   2.167581   7.628222
    41  H    6.845461   5.308212   5.974517   3.421818   7.202409
    42  H    4.208365   6.894966   8.468242   2.689024   9.151962
    43  H    5.281317   7.315710   8.267074   3.452383   9.442417
    44  H    6.309427   4.594706   7.512697   4.539133   6.396278
    45  H    2.327002   7.020617   8.793431   2.085315   9.371664
    46  H    2.329662   9.521962  11.965781   5.583329  11.768810
                   11         12         13         14         15
    11  C    0.000000
    12  C    1.533317   0.000000
    13  C    2.670143   2.639684   0.000000
    14  C    2.662514   2.641172   2.448463   0.000000
    15  C    3.834633   3.379350   1.539640   2.467790   0.000000
    16  C    5.099655   4.722014   3.696781   2.539006   2.532382
    17  C    8.997479   8.764279   6.813717   6.710787   5.566641
    18  C    8.811941   8.405207   6.420799   6.717577   5.096668
    19  C   10.169631   9.793975   7.849769   7.947716   6.527053
    20  C    6.223747   5.959391   4.458385   3.745250   3.213685
    21  C    7.527514   7.187029   5.841907   4.957786   4.528009
    22  C    5.628965   5.073507   4.730422   3.069352   3.628376
    23  C    7.828252   7.372142   6.507520   5.186264   5.205078
    24  C    6.973779   6.424706   6.023595   4.385440   4.825300
    25  C    9.896413   9.582897   8.133889   7.320191   6.811681
    26  C    9.255855   8.785307   8.001590   6.607014   6.687525
    27  C   10.178030   9.790150   8.674475   7.531677   7.339969
    28  C   11.619354  11.236395  10.142703   8.964915   8.807739
    29  H    1.085315   2.252153   2.862727   3.552656   4.275307
    30  H    1.084626   2.251322   3.563536   2.857836   4.589536
    31  H    2.251642   1.083993   3.521524   2.818614   3.946957
    32  H    2.250632   1.084605   2.809008   3.522391   3.576811
    33  H    2.945002   2.724056   1.094640   3.395339   2.194548
    34  H    3.053282   2.721168   3.337828   1.088810   3.188035
    35  H    2.929987   3.401142   2.999963   1.097120   3.212677
    36  H    4.738206   4.411930   2.184008   3.357075   1.089010
    37  H    4.151050   3.286950   2.187551   2.974667   1.097403
    38  H    3.044526   3.922070   2.085677   3.499735   3.345528
    39  H    3.767744   4.307082   2.067146   2.870789   2.514958
    40  H    8.994835   8.940029   6.824724   6.815343   5.752126
    41  H    8.636745   8.299054   6.109123   6.782379   4.925167
    42  H   10.647506  10.159930   8.417739   8.328411   7.007055
    43  H   10.891120  10.586500   8.493120   8.765332   7.256107
    44  H    7.551511   6.935114   6.867714   5.061312   5.723483
    45  H   10.780859  10.509038   8.905857   8.249729   7.603999
    46  H   13.057019  12.629513  11.785294  10.398215  10.458135
                   16         17         18         19         20
    16  C    0.000000
    17  C    4.441908   0.000000
    18  C    4.524421   1.511645   0.000000
    19  C    5.617320   1.538877   1.502789   0.000000
    20  C    1.405794   3.062515   3.347955   4.329436   0.000000
    21  C    2.482050   2.528168   3.132844   3.676489   1.406223
    22  C    1.416144   5.186781   5.338801   6.250588   2.387032
    23  C    2.838025   3.765298   4.318430   4.694581   2.402327
    24  C    2.435934   4.933673   5.280398   5.893171   2.751567
    25  C    4.875773   2.410684   3.497718   2.958485   3.713908
    26  C    4.326792   4.327529   5.041610   4.990454   3.806267
    27  C    5.134279   3.698791   4.628292   4.175336   4.248050
    28  C    6.597893   4.754206   5.717247   4.946586   5.705258
    29  H    5.874329   9.483601   9.236105  10.627961   6.882409
    30  H    5.396799   9.430693   9.393139  10.683073   6.559139
    31  H    4.786921   9.052633   8.747318  10.078112   6.131953
    32  H    5.321161   9.108835   8.579300  10.020710   6.478023
    33  H    4.608515   7.511428   6.936056   8.412167   5.342834
    34  H    2.779507   7.190162   7.211556   8.382744   4.136055
    35  H    2.965439   6.822160   7.037743   8.178828   3.952294
    36  H    2.825110   4.829994   4.268499   5.728199   3.003014
    37  H    2.921274   5.998404   5.340934   6.780614   3.714722
    38  H    4.976750   7.539886   7.391877   8.716782   5.477726
    39  H    3.595255   5.928554   5.914879   7.178135   3.883682
    40  H    4.780388   1.080285   2.235549   2.266081   3.392195
    41  H    4.868710   2.231192   1.082349   2.249367   3.780719
    42  H    5.879274   2.241601   2.200912   1.082881   4.676508
    43  H    6.531169   2.255623   2.236147   1.082195   5.212080
    44  H    3.422696   5.850028   6.208320   6.709375   3.832721
    45  H    5.827764   2.542722   3.683310   2.725542   4.576432
    46  H    8.140919   6.671643   7.578404   6.768320   7.415191
                   21         22         23         24         25
    21  C    0.000000
    22  C    2.804696   0.000000
    23  C    1.412476   2.403392   0.000000
    24  C    2.432264   1.367698   1.395466   0.000000
    25  C    2.396766   4.987485   2.738178   4.133452   0.000000
    26  C    2.563703   3.730954   1.494070   2.453370   2.446219
    27  C    2.852487   4.862209   2.460379   3.727589   1.362288
    28  C    4.311321   6.254999   3.872988   5.039946   2.379067
    29  H    8.238880   6.549540   8.667344   7.900631  10.582863
    30  H    7.795118   5.762625   7.973665   7.047474  10.130549
    31  H    7.236186   4.826636   7.210835   6.115641   9.611195
    32  H    7.713936   5.745557   7.973405   7.084427  10.088658
    33  H    6.695894   5.584101   7.371649   6.877458   8.954357
    34  H    5.158564   2.770531   5.090114   4.050576   7.491445
    35  H    5.130823   3.539789   5.404488   4.712889   7.385376
    36  H    4.273970   4.094981   5.200338   5.111436   6.380625
    37  H    4.865449   3.702443   5.370475   4.872992   7.119411
    38  H    6.868899   6.117918   7.678952   7.336622   9.000882
    39  H    5.250643   4.865352   6.139877   5.961113   7.333595
    40  H    3.120050   5.680047   4.426508   5.543068   3.058781
    41  H    3.908452   5.876414   5.182385   6.026767   4.483514
    42  H    3.781234   6.281817   4.512362   5.736529   2.698430
    43  H    4.648880   7.254863   5.717708   6.933959   3.763475
    44  H    3.395810   2.142734   2.123981   1.081719   4.721072
    45  H    3.358263   6.039855   3.820141   5.215551   1.082446
    46  H    6.040242   7.560016   5.319569   6.233491   4.295112
                   26         27         28         29         30
    26  C    0.000000
    27  C    1.456797   0.000000
    28  C    2.603809   1.471931   0.000000
    29  H   10.121533  10.965521  12.416877   0.000000
    30  H    9.339092  10.315816  11.720739   1.829301   0.000000
    31  H    8.546449   9.667052  11.078083   3.130779   2.539242
    32  H    9.397546  10.359720  11.814436   2.538056   3.129220
    33  H    8.859824   9.524524  10.992137   2.856888   3.986408
    34  H    6.423089   7.510279   8.906946   4.084854   3.042188
    35  H    6.767995   7.617164   9.010612   3.728149   2.850668
    36  H    6.641627   7.086949   8.528595   5.042747   5.504682
    37  H    6.805751   7.549329   9.002110   4.635961   4.950354
    38  H    9.135783   9.658570  11.083016   2.749559   3.679294
    39  H    7.571577   8.017675   9.430325   3.916540   4.286704
    40  H    5.035277   4.368441   5.354239   9.406414   9.404873
    41  H    6.033835   5.657224   6.752980   8.939818   9.296572
    42  H    4.551914   3.691166   4.315989  11.181601  11.131429
    43  H    5.965696   5.022994   5.622290  11.275199  11.431199
    44  H    2.583271   4.020360   5.137631   8.536630   7.533025
    45  H    3.418894   2.101208   2.503211  11.414885  11.042015
    46  H    3.855029   3.221663   1.920687  13.921416  13.069542
                   31         32         33         34         35
    31  H    0.000000
    32  H    1.832481   0.000000
    33  H    3.714459   2.460604   0.000000
    34  H    2.459310   3.673347   4.151359   0.000000
    35  H    3.609265   4.336878   4.017479   1.785062   0.000000
    36  H    5.029805   4.519468   2.698012   4.142885   3.909812
    37  H    3.717780   3.287839   2.443566   3.389960   3.921088
    38  H    4.861269   4.200053   2.516412   4.526087   3.375660
    39  H    5.053405   4.742939   2.956127   3.955008   2.708089
    40  H    9.310921   9.313353   7.552550   7.410479   6.780833
    41  H    8.765936   8.387034   6.523946   7.402695   7.096280
    42  H   10.342310  10.397602   8.983321   8.636585   8.619256
    43  H   10.940149  10.777867   9.013165   9.275623   8.945292
    44  H    6.471287   7.618836   7.693152   4.526301   5.392318
    45  H   10.591904  10.981768   9.698424   8.487546   8.277504
    46  H   12.347439  13.248386  12.645397  10.195143  10.437244
                   36         37         38         39         40
    36  H    0.000000
    37  H    1.798120   0.000000
    38  H    3.559657   4.216369   0.000000
    39  H    2.514674   3.590138   1.679969   0.000000
    40  H    4.957570   6.348574   7.249682   5.652549   0.000000
    41  H    3.958189   5.233474   6.946103   5.584131   2.526585
    42  H    6.312183   7.136498   9.446877   7.891616   3.135386
    43  H    6.369347   7.563784   9.200201   7.706111   2.562005
    44  H    6.098592   5.665764   8.219758   6.917426   6.499443
    45  H    7.062571   7.943252   9.667089   7.996309   3.042734
    46  H   10.275901  10.582135  12.772939  11.144763   7.263901
                   41         42         43         44         45
    41  H    0.000000
    42  H    3.109388   0.000000
    43  H    2.567712   1.840623   0.000000
    44  H    7.008755   6.422081   7.763054   0.000000
    45  H    4.607139   2.466842   3.276421   5.788823   0.000000
    46  H    8.630319   6.032314   7.396476   6.020496   4.357144
                   46
    46  H    0.000000
 Stoichiometry    C19H18ClF2N3O3
 Framework group  C1[X(C19H18ClF2N3O3)]
 Deg. of freedom   132
 Full point group                 C1      NOp   1
 Largest Abelian subgroup         C1      NOp   1
 Largest concise Abelian subgroup C1      NOp   1
                         Standard orientation:                         
 ---------------------------------------------------------------------
 Center     Atomic      Atomic             Coordinates (Angstroms)
 Number     Number       Type             X           Y           Z
 ---------------------------------------------------------------------
      1         17           0       -0.812095    1.938882   -1.055606
      2          9           0        1.027169    1.992283    2.006348
      3          9           0       -1.711643   -2.814774    0.691448
      4          8           0        3.191602   -2.906032    0.310834
      5          8           0        5.743489   -2.153614   -0.273062
      6          8           0        6.137407    0.055528   -0.692150
      7          7           0       -2.585395   -0.243755   -0.079263
      8          7           0       -4.553036    1.750723   -1.015067
      9          7           0        2.181624    1.056544   -0.348929
     10          6           0       -4.924930   -0.589210   -0.111845
     11          6           0       -6.275736   -1.069193   -0.591880
     12          6           0       -5.811194   -1.381309    0.835651
     13          6           0       -4.632185    0.887990    0.181320
     14          6           0       -3.616135   -1.190312   -0.620723
     15          6           0       -3.223717    0.792024    0.795731
     16          6           0       -1.236241   -0.561666    0.001739
     17          6           0        1.976300    2.497675   -0.223124
     18          6           0        1.373745    2.973567    1.078999
     19          6           0        2.835557    3.218214    0.830747
     20          6           0       -0.228980    0.373783   -0.292570
     21          6           0        1.146938    0.109977   -0.171251
     22          6           0       -0.782947   -1.856158    0.354273
     23          6           0        1.521328   -1.227053    0.088118
     24          6           0        0.543557   -2.189153    0.344348
     25          6           0        3.474079    0.620409   -0.432714
     26          6           0        2.934178   -1.712508    0.067279
     27          6           0        3.889446   -0.667473   -0.275683
     28          6           0        5.340592   -0.854745   -0.435948
     29          1           0       -7.062108   -0.331412   -0.715195
     30          1           0       -6.302295   -1.888511   -1.302109
     31          1           0       -5.526271   -2.402770    1.060321
     32          1           0       -6.288710   -0.843258    1.647345
     33          1           0       -5.355674    1.303846    0.889743
     34          1           0       -3.461474   -2.206323   -0.261128
     35          1           0       -3.572594   -1.179308   -1.716923
     36          1           0       -2.698663    1.743710    0.728243
     37          1           0       -3.271613    0.449405    1.837178
     38          1           0       -5.389572    1.663252   -1.600640
     39          1           0       -3.716165    1.520446   -1.560518
     40          1           0        1.715629    3.024206   -1.129673
     41          1           0        0.671599    3.796225    1.037726
     42          1           0        3.518921    2.600479    1.399999
     43          1           0        3.166634    4.224104    0.607768
     44          1           0        0.877524   -3.193666    0.566912
     45          1           0        4.223733    1.377661   -0.623183
     46          1           0        6.732714   -2.177458   -0.397685
 ---------------------------------------------------------------------
 Rotational constants (GHZ):      0.3351074      0.0979405      0.0815029
 Standard basis: LANL2DZ (5D, 7F)
 There are   287 symmetry adapted cartesian basis functions of A   symmetry.
 There are   287 symmetry adapted basis functions of A   symmetry.
   287 basis functions,   759 primitive gaussians,   287 cartesian basis functions
   101 alpha electrons      101 beta electrons
       nuclear repulsion energy      2645.1038350344 Hartrees.
 NAtoms=   46 NActive=   46 NUniq=   46 SFac= 1.00D+00 NAtFMM=   60 NAOKFM=F Big=F
 Integral buffers will be    131072 words long.
 Raffenetti 2 integral format.
 Two-electron integral symmetry is turned on.
 One-electron integrals computed using PRISM.
 PrsmSu:  requested number of processors reduced to:   8 ShMem   1 Linda.
   1 Symmetry operations used in ECPInt.
 ECPInt:  NShTT=   15400 NPrTT=  117698 LenC2=   13453 LenP2D=   56044.
 LDataN:  DoStor=T MaxTD1= 3 Len=   28
 Number of processors reduced to   8 by ecpmxn.
 NBasis=   287 RedAO= T EigKep=  1.85D-04  NBF=   287
 NBsUse=   287 1.00D-06 EigRej= -1.00D+00 NBFU=   287
 ExpMin= 1.15D-01 ExpMax= 1.00D+04 ExpMxC= 3.50D+02 IAcc=3 IRadAn=         5 AccDes= 0.00D+00
 Harris functional with IExCor= 1009 and IRadAn=       5 diagonalized for initial guess.
 HarFok:  IExCor= 1009 AccDes= 0.00D+00 IRadAn=         5 IDoV= 1 UseB2=F ITyADJ=14
 ICtDFT=  3500011 ScaDFX=  1.000000  1.000000  1.000000  1.000000
 FoFCou: FMM=F IPFlag=           0 FMFlag=      100000 FMFlg1=           0
         NFxFlg=           0 DoJE=T BraDBF=F KetDBF=T FulRan=T
         wScrn=  0.000000 ICntrl=     500 IOpCl=  0 I1Cent=   200000004 NGrid=           0
         NMat0=    1 NMatS0=      1 NMatT0=    0 NMatD0=    1 NMtDS0=    0 NMtDT0=    0
 Petite list used in FoFCou.
 Requested convergence on RMS density matrix=1.00D-08 within 128 cycles.
 Requested convergence on MAX density matrix=1.00D-06.
 Requested convergence on             energy=1.00D-06.
 No special actions if energy rises.
 Integral accuracy reduced to 1.0D-05 until final iterations.
 EnCoef did     1 forward-backward iterations
 Initial convergence to 1.0D-05 achieved.  Increase integral accuracy.
 SCF Done:  E(RM06) =  -1338.33509601     A.U. after   18 cycles
            NFock= 18  Conv=0.87D-08     -V/T= 2.0118

 **********************************************************************

            Population analysis using the SCF density.

 **********************************************************************

 Orbital symmetries:
       Occupied  (A) (A) (A) (A) (A) (A) (A) (A) (A) (A) (A) (A)
                 (A) (A) (A) (A) (A) (A) (A) (A) (A) (A) (A) (A)
                 (A) (A) (A) (A) (A) (A) (A) (A) (A) (A) (A) (A)
                 (A) (A) (A) (A) (A) (A) (A) (A) (A) (A) (A) (A)
                 (A) (A) (A) (A) (A) (A) (A) (A) (A) (A) (A) (A)
                 (A) (A) (A) (A) (A) (A) (A) (A) (A) (A) (A) (A)
                 (A) (A) (A) (A) (A) (A) (A) (A) (A) (A) (A) (A)
                 (A) (A) (A) (A) (A) (A) (A) (A) (A) (A) (A) (A)
                 (A) (A) (A) (A) (A)
       Virtual   (A) (A) (A) (A) (A) (A) (A) (A) (A) (A) (A) (A)
                 (A) (A) (A) (A) (A) (A) (A) (A) (A) (A) (A) (A)
                 (A) (A) (A) (A) (A) (A) (A) (A) (A) (A) (A) (A)
                 (A) (A) (A) (A) (A) (A) (A) (A) (A) (A) (A) (A)
                 (A) (A) (A) (A) (A) (A) (A) (A) (A) (A) (A) (A)
                 (A) (A) (A) (A) (A) (A) (A) (A) (A) (A) (A) (A)
                 (A) (A) (A) (A) (A) (A) (A) (A) (A) (A) (A) (A)
                 (A) (A) (A) (A) (A) (A) (A) (A) (A) (A) (A) (A)
                 (A) (A) (A) (A) (A) (A) (A) (A) (A) (A) (A) (A)
                 (A) (A) (A) (A) (A) (A) (A) (A) (A) (A) (A) (A)
                 (A) (A) (A) (A) (A) (A) (A) (A) (A) (A) (A) (A)
                 (A) (A) (A) (A) (A) (A) (A) (A) (A) (A) (A) (A)
                 (A) (A) (A) (A) (A) (A) (A) (A) (A) (A) (A) (A)
                 (A) (A) (A) (A) (A) (A) (A) (A) (A) (A) (A) (A)
                 (A) (A) (A) (A) (A) (A) (A) (A) (A) (A) (A) (A)
                 (A) (A) (A) (A) (A) (A)
 The electronic state is 1-A.
 Alpha  occ. eigenvalues --  -24.81367 -24.80930 -19.26887 -19.22461 -19.20076
 Alpha  occ. eigenvalues --  -14.50014 -14.42519 -14.37858 -10.40999 -10.37501
 Alpha  occ. eigenvalues --  -10.36266 -10.35322 -10.35204 -10.34514 -10.34226
 Alpha  occ. eigenvalues --  -10.34136 -10.34032 -10.29672 -10.29289 -10.28951
 Alpha  occ. eigenvalues --  -10.28914 -10.28876 -10.28372 -10.28034 -10.27290
 Alpha  occ. eigenvalues --  -10.25978 -10.25644  -1.27087  -1.26204  -1.14183
 Alpha  occ. eigenvalues --   -1.06061  -1.05390  -1.04442  -0.98329  -0.92993
 Alpha  occ. eigenvalues --   -0.91819  -0.89467  -0.87509  -0.86496  -0.84150
 Alpha  occ. eigenvalues --   -0.80969  -0.78007  -0.74854  -0.73369  -0.71339
 Alpha  occ. eigenvalues --   -0.68775  -0.67934  -0.66116  -0.64318  -0.62560
 Alpha  occ. eigenvalues --   -0.62314  -0.62121  -0.59365  -0.58780  -0.57743
 Alpha  occ. eigenvalues --   -0.56948  -0.56891  -0.54538  -0.53614  -0.52379
 Alpha  occ. eigenvalues --   -0.51189  -0.50993  -0.50211  -0.49665  -0.49120
 Alpha  occ. eigenvalues --   -0.48952  -0.48458  -0.47728  -0.47353  -0.46883
 Alpha  occ. eigenvalues --   -0.46330  -0.46117  -0.45392  -0.44913  -0.44428
 Alpha  occ. eigenvalues --   -0.44278  -0.43641  -0.42121  -0.41663  -0.40973
 Alpha  occ. eigenvalues --   -0.40532  -0.40331  -0.39755  -0.39240  -0.38690
 Alpha  occ. eigenvalues --   -0.38225  -0.36820  -0.36146  -0.35298  -0.34279
 Alpha  occ. eigenvalues --   -0.33468  -0.32789  -0.31739  -0.30580  -0.30362
 Alpha  occ. eigenvalues --   -0.30024  -0.29114  -0.25752  -0.25363  -0.24451
 Alpha  occ. eigenvalues --   -0.22795
 Alpha virt. eigenvalues --   -0.06817  -0.05510  -0.02786   0.00230   0.01713
 Alpha virt. eigenvalues --    0.05306   0.07758   0.08715   0.08976   0.09499
 Alpha virt. eigenvalues --    0.09859   0.10324   0.10358   0.11525   0.11772
 Alpha virt. eigenvalues --    0.12464   0.12567   0.13407   0.14229   0.14965
 Alpha virt. eigenvalues --    0.15219   0.15730   0.16113   0.16273   0.16814
 Alpha virt. eigenvalues --    0.17313   0.18321   0.18762   0.19372   0.19935
 Alpha virt. eigenvalues --    0.20252   0.21146   0.21449   0.21518   0.22223
 Alpha virt. eigenvalues --    0.22597   0.23961   0.24505   0.24871   0.25548
 Alpha virt. eigenvalues --    0.25875   0.26013   0.26529   0.27102   0.27282
 Alpha virt. eigenvalues --    0.27550   0.28310   0.28567   0.29235   0.29540
 Alpha virt. eigenvalues --    0.29924   0.30766   0.31272   0.31498   0.32077
 Alpha virt. eigenvalues --    0.32453   0.32844   0.33176   0.33385   0.34070
 Alpha virt. eigenvalues --    0.34911   0.35166   0.35664   0.35914   0.37064
 Alpha virt. eigenvalues --    0.37274   0.38108   0.38824   0.39301   0.39765
 Alpha virt. eigenvalues --    0.40166   0.40837   0.41438   0.41717   0.42521
 Alpha virt. eigenvalues --    0.42839   0.42977   0.43552   0.44394   0.44935
 Alpha virt. eigenvalues --    0.44990   0.45977   0.46146   0.46813   0.47685
 Alpha virt. eigenvalues --    0.48301   0.48430   0.49338   0.49619   0.50262
 Alpha virt. eigenvalues --    0.50835   0.51241   0.51933   0.52731   0.53608
 Alpha virt. eigenvalues --    0.54377   0.54891   0.56276   0.56509   0.56987
 Alpha virt. eigenvalues --    0.58039   0.58996   0.60660   0.61516   0.62209
 Alpha virt. eigenvalues --    0.64562   0.65440   0.66676   0.67232   0.67969
 Alpha virt. eigenvalues --    0.69055   0.69509   0.70748   0.71919   0.72662
 Alpha virt. eigenvalues --    0.73287   0.75435   0.75629   0.78387   0.79175
 Alpha virt. eigenvalues --    0.79700   0.81286   0.82950   0.84276   0.85474
 Alpha virt. eigenvalues --    0.86782   0.88317   0.89208   0.90360   0.91049
 Alpha virt. eigenvalues --    0.92167   0.93491   0.96079   0.97446   0.98447
 Alpha virt. eigenvalues --    0.99507   1.00407   1.02002   1.02240   1.02795
 Alpha virt. eigenvalues --    1.03986   1.04640   1.05080   1.05766   1.07497
 Alpha virt. eigenvalues --    1.09762   1.10553   1.11220   1.12430   1.13257
 Alpha virt. eigenvalues --    1.13450   1.14440   1.14799   1.16525   1.17124
 Alpha virt. eigenvalues --    1.17781   1.19535   1.21298   1.21517   1.23388
 Alpha virt. eigenvalues --    1.25641   1.26302   1.27965   1.29129   1.30355
 Alpha virt. eigenvalues --    1.35044   1.35806   1.38238   1.40443   1.44062
 Alpha virt. eigenvalues --    1.47202   1.49919   1.52050   1.53560   1.59235
 Alpha virt. eigenvalues --    1.59679   1.62030   1.78978   1.79847   1.84424
 Alpha virt. eigenvalues --    1.91654   1.96770   2.00323   2.15321   2.21990
 Alpha virt. eigenvalues --   12.25168
          Condensed to atoms (all electrons):
               1          2          3          4          5          6
     1  Cl   6.862974  -0.000272  -0.000019   0.000000   0.000000   0.000000
     2  F   -0.000272   9.064176   0.000000   0.000000   0.000000   0.000000
     3  F   -0.000019   0.000000   9.060334   0.000005   0.000000   0.000000
     4  O    0.000000   0.000000   0.000005   7.778251  -0.006433   0.000009
     5  O    0.000000   0.000000   0.000000  -0.006433   8.081360  -0.083086
     6  O    0.000000   0.000000   0.000000   0.000009  -0.083086   7.876638
     7  N   -0.005851  -0.000012   0.002412   0.000000   0.000000   0.000000
     8  N   -0.001772   0.000000   0.000000   0.000000   0.000000   0.000000
     9  N   -0.000211  -0.006516   0.000000   0.000264   0.000003   0.000841
    10  C   -0.000228   0.000000   0.000956   0.000000   0.000000   0.000000
    11  C    0.000002   0.000000   0.000050   0.000000   0.000000   0.000000
    12  C   -0.000004   0.000000  -0.000109   0.000000   0.000000   0.000000
    13  C   -0.000405   0.000002  -0.000032   0.000000   0.000000   0.000000
    14  C   -0.000049  -0.000001  -0.004045   0.000000   0.000000   0.000000
    15  C   -0.018480   0.000266   0.000089   0.000000   0.000000   0.000000
    16  C   -0.154592   0.001479  -0.038798   0.000097   0.000000   0.000000
    17  C    0.004988  -0.037621   0.000000   0.000009   0.000004   0.000286
    18  C   -0.008744   0.285480   0.000000   0.000001   0.000000   0.000004
    19  C    0.003815  -0.028575   0.000000  -0.000002  -0.000002  -0.000031
    20  C    0.469938   0.000049   0.001285  -0.000167  -0.000005  -0.000019
    21  C   -0.147787   0.005126  -0.000172  -0.006775  -0.000390  -0.000510
    22  C   -0.001559  -0.000006   0.286361   0.001658   0.000001   0.000000
    23  C   -0.002477  -0.000115  -0.002190  -0.138115  -0.001175  -0.000007
    24  C   -0.000897  -0.000093  -0.061306   0.026036   0.000203   0.000028
    25  C   -0.000403   0.001154   0.000000   0.001346  -0.005462   0.007940
    26  C    0.000022   0.000114  -0.000055   0.677392   0.001526  -0.004536
    27  C   -0.000014   0.000154  -0.000006  -0.067846  -0.027757  -0.064806
    28  C   -0.000001   0.000001   0.000000  -0.006990   0.247342   0.589362
    29  H    0.000000   0.000000   0.000000   0.000000   0.000000   0.000000
    30  H    0.000000   0.000000   0.000000   0.000000   0.000000   0.000000
    31  H    0.000000   0.000000   0.000015   0.000000   0.000000   0.000000
    32  H    0.000000   0.000000  -0.000001   0.000000   0.000000   0.000000
    33  H   -0.000005   0.000000   0.000000   0.000000   0.000000   0.000000
    34  H   -0.000003   0.000000   0.004270   0.000000   0.000000   0.000000
    35  H    0.000012   0.000000   0.000210   0.000000   0.000000   0.000000
    36  H    0.005934  -0.000010  -0.000001   0.000000   0.000000   0.000000
    37  H    0.000143  -0.000005  -0.000057   0.000000   0.000000   0.000000
    38  H    0.000059   0.000000   0.000000   0.000000   0.000000   0.000000
    39  H    0.004572   0.000000   0.000000   0.000000   0.000000   0.000000
    40  H   -0.004330   0.001342   0.000000   0.000000   0.000000  -0.000001
    41  H    0.000937  -0.042407   0.000000   0.000000   0.000000   0.000000
    42  H   -0.000050  -0.005540   0.000000   0.000000   0.000000   0.000027
    43  H    0.000031   0.001594   0.000000   0.000000   0.000000   0.000000
    44  H    0.000002   0.000000   0.000630   0.012893   0.000000   0.000000
    45  H   -0.000005   0.000015   0.000000  -0.000060   0.000362   0.014203
    46  H    0.000000   0.000000   0.000000   0.000370   0.245891   0.003047
               7          8          9         10         11         12
     1  Cl  -0.005851  -0.001772  -0.000211  -0.000228   0.000002  -0.000004
     2  F   -0.000012   0.000000  -0.006516   0.000000   0.000000   0.000000
     3  F    0.002412   0.000000   0.000000   0.000956   0.000050  -0.000109
     4  O    0.000000   0.000000   0.000264   0.000000   0.000000   0.000000
     5  O    0.000000   0.000000   0.000003   0.000000   0.000000   0.000000
     6  O    0.000000   0.000000   0.000841   0.000000   0.000000   0.000000
     7  N    6.946080  -0.014699  -0.000061  -0.086311   0.004136  -0.004977
     8  N   -0.014699   6.841035   0.000000  -0.094548  -0.006429   0.009810
     9  N   -0.000061   0.000000   6.619787   0.000000   0.000000   0.000000
    10  C   -0.086311  -0.094548   0.000000   5.312264   0.127284   0.134630
    11  C    0.004136  -0.006429   0.000000   0.127284   5.663916   0.156660
    12  C   -0.004977   0.009810   0.000000   0.134630   0.156660   5.622967
    13  C   -0.043378   0.322682   0.000000   0.273226  -0.026130  -0.007532
    14  C    0.305977   0.012395  -0.000003   0.237378  -0.033572  -0.048597
    15  C    0.272616  -0.043507   0.000000  -0.098577   0.004651   0.001299
    16  C    0.178357   0.000559  -0.005253   0.002148   0.000135   0.000689
    17  C    0.000090   0.000000   0.296517  -0.000001   0.000000   0.000000
    18  C   -0.000044   0.000001  -0.028612   0.000000   0.000000   0.000000
    19  C    0.000000   0.000000  -0.029078   0.000000   0.000000   0.000000
    20  C   -0.045802   0.000292  -0.022002  -0.000209   0.000079   0.000103
    21  C    0.003561   0.000001   0.175641   0.000043   0.000000   0.000004
    22  C   -0.014191  -0.000173   0.001046  -0.003580   0.000006  -0.000617
    23  C    0.001120   0.000001  -0.027797  -0.000058   0.000000  -0.000001
    24  C    0.009097  -0.000004   0.011158  -0.000247   0.000002  -0.000033
    25  C    0.000008   0.000000   0.395340   0.000000   0.000000   0.000000
    26  C    0.000048   0.000000  -0.009598  -0.000001   0.000000   0.000000
    27  C   -0.000002   0.000000  -0.056797   0.000000   0.000000   0.000000
    28  C    0.000000   0.000000   0.008857   0.000000   0.000000   0.000000
    29  H   -0.000021  -0.000175   0.000000  -0.009149   0.366054  -0.022079
    30  H    0.000043   0.000438   0.000000  -0.014898   0.375498  -0.019081
    31  H    0.000492  -0.000179   0.000000  -0.007529  -0.020410   0.363459
    32  H   -0.000128   0.000397   0.000000  -0.020935  -0.019698   0.373689
    33  H    0.004073  -0.050615   0.000000  -0.084076  -0.003819  -0.002810
    34  H   -0.043841   0.000140   0.000000  -0.033587  -0.000916  -0.001253
    35  H   -0.057276   0.001940   0.000000  -0.025747  -0.003326   0.005283
    36  H   -0.039519  -0.005120   0.000013   0.005550  -0.000375   0.000136
    37  H   -0.062199   0.003432  -0.000001  -0.000569   0.000516  -0.001131
    38  H    0.000040   0.321973   0.000000   0.001972   0.003547   0.000323
    39  H    0.008456   0.316799   0.000000  -0.011682  -0.000451   0.000006
    40  H   -0.000002   0.000000  -0.026670   0.000000   0.000000   0.000000
    41  H    0.000001   0.000000   0.000504   0.000000   0.000000   0.000000
    42  H    0.000000   0.000000  -0.006814   0.000000   0.000000   0.000000
    43  H    0.000000   0.000000   0.000618   0.000000   0.000000   0.000000
    44  H   -0.000110   0.000000  -0.000051   0.000001   0.000000   0.000000
    45  H    0.000000   0.000000  -0.033406   0.000000   0.000000   0.000000
    46  H    0.000000   0.000000   0.000001   0.000000   0.000000   0.000000
              13         14         15         16         17         18
     1  Cl  -0.000405  -0.000049  -0.018480  -0.154592   0.004988  -0.008744
     2  F    0.000002  -0.000001   0.000266   0.001479  -0.037621   0.285480
     3  F   -0.000032  -0.004045   0.000089  -0.038798   0.000000   0.000000
     4  O    0.000000   0.000000   0.000000   0.000097   0.000009   0.000001
     5  O    0.000000   0.000000   0.000000   0.000000   0.000004   0.000000
     6  O    0.000000   0.000000   0.000000   0.000000   0.000286   0.000004
     7  N   -0.043378   0.305977   0.272616   0.178357   0.000090  -0.000044
     8  N    0.322682   0.012395  -0.043507   0.000559   0.000000   0.000001
     9  N    0.000000  -0.000003   0.000000  -0.005253   0.296517  -0.028612
    10  C    0.273226   0.237378  -0.098577   0.002148  -0.000001   0.000000
    11  C   -0.026130  -0.033572   0.004651   0.000135   0.000000   0.000000
    12  C   -0.007532  -0.048597   0.001299   0.000689   0.000000   0.000000
    13  C    5.317408  -0.047635   0.269593   0.006985  -0.000002   0.000008
    14  C   -0.047635   5.424302  -0.094736  -0.048489   0.000002  -0.000003
    15  C    0.269593  -0.094736   5.481602  -0.055994   0.000026  -0.000050
    16  C    0.006985  -0.048489  -0.055994   5.630076   0.000727  -0.001646
    17  C   -0.000002   0.000002   0.000026   0.000727   5.536010   0.122183
    18  C    0.000008  -0.000003  -0.000050  -0.001646   0.122183   5.198725
    19  C    0.000000   0.000000   0.000012   0.000399   0.105042   0.157145
    20  C   -0.002976  -0.009943  -0.004680   0.089222  -0.020661  -0.006257
    21  C   -0.000121   0.000362  -0.002438  -0.065368  -0.026145   0.002962
    22  C    0.000064   0.002375  -0.005291   0.303677   0.000004  -0.000069
    23  C   -0.000001  -0.000238  -0.000115  -0.140655   0.007731  -0.001018
    24  C   -0.000010  -0.002096   0.000482  -0.146388   0.000023  -0.000053
    25  C    0.000000   0.000000   0.000003  -0.000002  -0.075933  -0.010027
    26  C    0.000000  -0.000006  -0.000015  -0.001419   0.000872   0.000183
    27  C    0.000000   0.000000   0.000000   0.000335  -0.000653  -0.000465
    28  C    0.000000   0.000000   0.000000  -0.000018   0.000073   0.000061
    29  H   -0.004690   0.001247   0.000536   0.000004   0.000000   0.000000
    30  H    0.001665  -0.003403  -0.000157  -0.000005   0.000000   0.000000
    31  H   -0.000820  -0.005458   0.000637  -0.000066   0.000000   0.000000
    32  H   -0.005426   0.003727   0.001666   0.000020   0.000000   0.000000
    33  H    0.305491   0.013460  -0.012609   0.000026   0.000000   0.000000
    34  H    0.006663   0.378202   0.000431   0.005075   0.000000   0.000000
    35  H   -0.010815   0.352870   0.005130  -0.000907   0.000000   0.000000
    36  H   -0.022006   0.004960   0.363609  -0.005297  -0.000025   0.000083
    37  H   -0.032673   0.000946   0.357607   0.004390   0.000002  -0.000006
    38  H   -0.043874  -0.002521   0.006609  -0.000078   0.000000   0.000000
    39  H   -0.033622   0.009313  -0.010685  -0.000180   0.000003   0.000000
    40  H    0.000000   0.000000   0.000003  -0.000065   0.310933  -0.013761
    41  H    0.000000   0.000000  -0.000005   0.000174  -0.015386   0.295238
    42  H    0.000000   0.000000   0.000000  -0.000006  -0.022027  -0.012328
    43  H    0.000000   0.000000   0.000000   0.000000  -0.005729  -0.006532
    44  H    0.000000   0.000010  -0.000004  -0.002454   0.000006  -0.000002
    45  H    0.000000   0.000000   0.000000  -0.000006  -0.003929   0.000681
    46  H    0.000000   0.000000   0.000000   0.000000   0.000000   0.000000
              19         20         21         22         23         24
     1  Cl   0.003815   0.469938  -0.147787  -0.001559  -0.002477  -0.000897
     2  F   -0.028575   0.000049   0.005126  -0.000006  -0.000115  -0.000093
     3  F    0.000000   0.001285  -0.000172   0.286361  -0.002190  -0.061306
     4  O   -0.000002  -0.000167  -0.006775   0.001658  -0.138115   0.026036
     5  O   -0.000002  -0.000005  -0.000390   0.000001  -0.001175   0.000203
     6  O   -0.000031  -0.000019  -0.000510   0.000000  -0.000007   0.000028
     7  N    0.000000  -0.045802   0.003561  -0.014191   0.001120   0.009097
     8  N    0.000000   0.000292   0.000001  -0.000173   0.000001  -0.000004
     9  N   -0.029078  -0.022002   0.175641   0.001046  -0.027797   0.011158
    10  C    0.000000  -0.000209   0.000043  -0.003580  -0.000058  -0.000247
    11  C    0.000000   0.000079   0.000000   0.000006   0.000000   0.000002
    12  C    0.000000   0.000103   0.000004  -0.000617  -0.000001  -0.000033
    13  C    0.000000  -0.002976  -0.000121   0.000064  -0.000001  -0.000010
    14  C    0.000000  -0.009943   0.000362   0.002375  -0.000238  -0.002096
    15  C    0.000012  -0.004680  -0.002438  -0.005291  -0.000115   0.000482
    16  C    0.000399   0.089222  -0.065368   0.303677  -0.140655  -0.146388
    17  C    0.105042  -0.020661  -0.026145   0.000004   0.007731   0.000023
    18  C    0.157145  -0.006257   0.002962  -0.000069  -0.001018  -0.000053
    19  C    5.694472   0.004473  -0.003671  -0.000001  -0.002231  -0.000073
    20  C    0.004473   6.393625   0.127953  -0.183878  -0.173838  -0.117231
    21  C   -0.003671   0.127953   5.730547  -0.094102   0.102620  -0.160823
    22  C   -0.000001  -0.183878  -0.094102   5.186833  -0.066974   0.384015
    23  C   -0.002231  -0.173838   0.102620  -0.066974   5.848287   0.479779
    24  C   -0.000073  -0.117231  -0.160823   0.384015   0.479779   5.937772
    25  C    0.002577   0.000513  -0.131169   0.000281   0.021409   0.004533
    26  C   -0.000091  -0.001208  -0.030127  -0.017032   0.081328  -0.024178
    27  C    0.001111  -0.004280   0.019449  -0.001335  -0.165113  -0.022825
    28  C   -0.000019  -0.000655  -0.003028   0.000030  -0.022177   0.001000
    29  H    0.000000   0.000000   0.000000   0.000000   0.000000   0.000000
    30  H    0.000000   0.000000   0.000000   0.000001   0.000000   0.000000
    31  H    0.000000  -0.000003   0.000000   0.000071   0.000000   0.000003
    32  H    0.000000   0.000003   0.000000  -0.000003   0.000000   0.000000
    33  H    0.000000   0.000074   0.000001   0.000023   0.000000   0.000000
    34  H    0.000000   0.000442   0.000075  -0.003491   0.000046  -0.001024
    35  H    0.000000  -0.000154  -0.000146   0.003088  -0.000019   0.000339
    36  H    0.000002  -0.002227  -0.000558   0.000189   0.000013   0.000024
    37  H    0.000000   0.003613   0.000405  -0.001596  -0.000030  -0.000162
    38  H    0.000000   0.000014   0.000000   0.000001   0.000000   0.000000
    39  H    0.000000   0.000846   0.000093  -0.000017   0.000004  -0.000002
    40  H   -0.012691  -0.002781   0.004770   0.000001   0.000603   0.000000
    41  H   -0.026677   0.000968   0.000480  -0.000004  -0.000043   0.000002
    42  H    0.373436  -0.000290   0.000629   0.000000   0.000118   0.000009
    43  H    0.312337   0.000022  -0.000260   0.000000  -0.000002   0.000000
    44  H    0.000000   0.000963   0.002469  -0.045788  -0.010438   0.316571
    45  H   -0.000515  -0.000213  -0.003370   0.000003  -0.000554   0.000039
    46  H    0.000000   0.000000   0.000008   0.000000   0.000063  -0.000005
              25         26         27         28         29         30
     1  Cl  -0.000403   0.000022  -0.000014  -0.000001   0.000000   0.000000
     2  F    0.001154   0.000114   0.000154   0.000001   0.000000   0.000000
     3  F    0.000000  -0.000055  -0.000006   0.000000   0.000000   0.000000
     4  O    0.001346   0.677392  -0.067846  -0.006990   0.000000   0.000000
     5  O   -0.005462   0.001526  -0.027757   0.247342   0.000000   0.000000
     6  O    0.007940  -0.004536  -0.064806   0.589362   0.000000   0.000000
     7  N    0.000008   0.000048  -0.000002   0.000000  -0.000021   0.000043
     8  N    0.000000   0.000000   0.000000   0.000000  -0.000175   0.000438
     9  N    0.395340  -0.009598  -0.056797   0.008857   0.000000   0.000000
    10  C    0.000000  -0.000001   0.000000   0.000000  -0.009149  -0.014898
    11  C    0.000000   0.000000   0.000000   0.000000   0.366054   0.375498
    12  C    0.000000   0.000000   0.000000   0.000000  -0.022079  -0.019081
    13  C    0.000000   0.000000   0.000000   0.000000  -0.004690   0.001665
    14  C    0.000000  -0.000006   0.000000   0.000000   0.001247  -0.003403
    15  C    0.000003  -0.000015   0.000000   0.000000   0.000536  -0.000157
    16  C   -0.000002  -0.001419   0.000335  -0.000018   0.000004  -0.000005
    17  C   -0.075933   0.000872  -0.000653   0.000073   0.000000   0.000000
    18  C   -0.010027   0.000183  -0.000465   0.000061   0.000000   0.000000
    19  C    0.002577  -0.000091   0.001111  -0.000019   0.000000   0.000000
    20  C    0.000513  -0.001208  -0.004280  -0.000655   0.000000   0.000000
    21  C   -0.131169  -0.030127   0.019449  -0.003028   0.000000   0.000000
    22  C    0.000281  -0.017032  -0.001335   0.000030   0.000000   0.000001
    23  C    0.021409   0.081328  -0.165113  -0.022177   0.000000   0.000000
    24  C    0.004533  -0.024178  -0.022825   0.001000   0.000000   0.000000
    25  C    5.592181  -0.082465   0.281625  -0.028306   0.000000   0.000000
    26  C   -0.082465   5.244891   0.039836  -0.034807   0.000000   0.000000
    27  C    0.281625   0.039836   5.892053   0.088944   0.000000   0.000000
    28  C   -0.028306  -0.034807   0.088944   4.988769   0.000000   0.000000
    29  H    0.000000   0.000000   0.000000   0.000000   0.442773  -0.008762
    30  H    0.000000   0.000000   0.000000   0.000000  -0.008762   0.431822
    31  H    0.000000   0.000000   0.000000   0.000000   0.000599  -0.002996
    32  H    0.000000   0.000000   0.000000   0.000000  -0.003219   0.000512
    33  H    0.000000   0.000000   0.000000   0.000000   0.000659  -0.000009
    34  H    0.000000   0.000001   0.000000   0.000000  -0.000084   0.000722
    35  H    0.000000   0.000000   0.000000   0.000000   0.000315   0.000586
    36  H    0.000001   0.000000   0.000000   0.000000   0.000002   0.000001
    37  H    0.000000   0.000000   0.000000   0.000000  -0.000006  -0.000001
    38  H    0.000000   0.000000   0.000000   0.000000   0.000446  -0.000034
    39  H    0.000000   0.000000   0.000000   0.000000   0.000046   0.000002
[...]
    42  H    0.375237  -0.000222   0.000446   0.000000   0.000082   0.000006
    43  H    0.309497   0.000017  -0.000187   0.000000   0.000001   0.000000
    44  H    0.000000   0.000819   0.001579  -0.040414  -0.015035   0.318975
    45  H    0.000324  -0.000303  -0.003521   0.000003  -0.000087   0.000055
    46  H    0.000000   0.000000   0.000007   0.000000   0.000044  -0.000004
              25         26         27         28         29         30
     1  Cl  -0.000339   0.000013  -0.000010  -0.000001   0.000000   0.000000
     2  F    0.001069   0.000065   0.000124   0.000000   0.000000   0.000000
     3  F    0.000000  -0.000047  -0.000005   0.000000   0.000000   0.000000
     4  O    0.001554   0.675502  -0.073238  -0.006138   0.000000   0.000000
     5  O   -0.006286   0.003115  -0.027486   0.253222   0.000000   0.000000
     6  O    0.008052  -0.004042  -0.065951   0.590416   0.000000   0.000000
     7  N    0.000006   0.000055  -0.000001   0.000000  -0.000019   0.000061
     8  N    0.000000   0.000000   0.000000   0.000000  -0.000173   0.000405
     9  N    0.391160  -0.009014  -0.057662   0.008387   0.000000   0.000000
    10  C    0.000000  -0.000001   0.000000   0.000000  -0.009418  -0.014575
    11  C    0.000000   0.000000   0.000000   0.000000   0.366873   0.376439
    12  C    0.000000   0.000000   0.000000   0.000000  -0.022893  -0.019121
    13  C    0.000000   0.000000   0.000000   0.000000  -0.004470   0.001412
    14  C    0.000000  -0.000009   0.000000   0.000000   0.001332  -0.003321
    15  C    0.000002  -0.000014  -0.000001   0.000000   0.000598  -0.000144
    16  C   -0.000171  -0.001502   0.000266  -0.000014   0.000005  -0.000009
    17  C   -0.074663   0.000842  -0.000881   0.000117   0.000000   0.000000
    18  C   -0.011157   0.000194  -0.000396   0.000049   0.000000   0.000000
    19  C    0.003820  -0.000159   0.001422  -0.000016   0.000000   0.000000
    20  C   -0.001742  -0.000760  -0.004015  -0.000555   0.000000   0.000000
    21  C   -0.124353  -0.025416   0.016254  -0.001874   0.000000   0.000000
    22  C    0.000276  -0.018537  -0.001390   0.000016   0.000000   0.000003
    23  C    0.024187   0.083605  -0.163574  -0.022839   0.000000   0.000000
    24  C    0.004509  -0.032071  -0.021636   0.000692   0.000000   0.000000
    25  C    5.566984  -0.082832   0.280131  -0.023110   0.000000   0.000000
    26  C   -0.082832   5.247784   0.043818  -0.037663   0.000000   0.000000
    27  C    0.280131   0.043818   5.894296   0.087200   0.000000   0.000000
    28  C   -0.023110  -0.037663   0.087200   4.979405   0.000000   0.000000
    29  H    0.000000   0.000000   0.000000   0.000000   0.446939  -0.009495
    30  H    0.000000   0.000000   0.000000   0.000000  -0.009495   0.433148
    31  H    0.000000   0.000000   0.000000   0.000000   0.000645  -0.003054
    32  H    0.000000   0.000000   0.000000   0.000000  -0.003252   0.000521
    33  H    0.000000   0.000000   0.000000   0.000000   0.000869  -0.000034
    34  H    0.000000   0.000001   0.000000   0.000000  -0.000080   0.000722
    35  H    0.000000   0.000000   0.000000   0.000000   0.000303   0.000609
    36  H    0.000001   0.000000   0.000000   0.000000   0.000001   0.000001
    37  H    0.000000   0.000000   0.000000   0.000000  -0.000005  -0.000001
    38  H    0.000000   0.000000   0.000000   0.000000   0.000469  -0.000032
    39  H    0.000000   0.000000   0.000000   0.000000   0.000047  -0.000003
    40  H   -0.002216   0.000003  -0.000022  -0.000001   0.000000   0.000000
    41  H    0.000560   0.000000   0.000031   0.000000   0.000000   0.000000
    42  H    0.002954   0.000064   0.000413   0.000147   0.000000   0.000000
    43  H    0.000764  -0.000001  -0.000023  -0.000001   0.000000   0.000000
    44  H   -0.000103   0.005006   0.002745  -0.000017   0.000000   0.000000
    45  H    0.316291   0.003613  -0.019284  -0.004981   0.000000   0.000000
    46  H   -0.000354   0.001467   0.004654  -0.028301   0.000000   0.000000
              31         32         33         34         35         36
     1  Cl   0.000000   0.000000  -0.000001   0.000001  -0.000016   0.005117
     2  F    0.000000   0.000000   0.000000   0.000000   0.000000  -0.000008
     3  F    0.000015  -0.000001   0.000000   0.003611   0.000164  -0.000002
     4  O    0.000000   0.000000   0.000000   0.000000   0.000000   0.000000
     5  O    0.000000   0.000000   0.000000   0.000000   0.000000   0.000000
     6  O    0.000000   0.000000   0.000000   0.000000   0.000000   0.000000
     7  N    0.000389  -0.000100   0.003954  -0.041479  -0.059333  -0.039624
     8  N   -0.000181   0.000403  -0.054728   0.000160   0.002126  -0.004872
     9  N    0.000000   0.000000   0.000000   0.000000   0.000000   0.000015
    10  C   -0.007216  -0.018537  -0.086886  -0.035008  -0.025821   0.006042
    11  C   -0.020758  -0.020372  -0.005523  -0.001075  -0.003379  -0.000368
    12  C    0.362320   0.374253  -0.001727  -0.001779   0.005436   0.000115
    13  C   -0.000730  -0.006003   0.313427   0.006786  -0.010713  -0.022479
    14  C   -0.004884   0.003753   0.014106   0.379613   0.357800   0.004767
    15  C    0.000685   0.001580  -0.010543   0.000918   0.005138   0.363713
    16  C   -0.000048   0.000013  -0.000059   0.002797  -0.002210  -0.004219
    17  C    0.000000   0.000000   0.000000   0.000000   0.000000  -0.000037
    18  C    0.000000   0.000000   0.000000   0.000000   0.000000   0.000085
    19  C    0.000000   0.000000   0.000000   0.000000   0.000000   0.000003
    20  C   -0.000002   0.000002   0.000076   0.000245  -0.000377  -0.003741
    21  C    0.000000   0.000000   0.000001   0.000045  -0.000167  -0.000647
    22  C    0.000052  -0.000001   0.000034  -0.001913   0.004012   0.000330
    23  C    0.000000   0.000000   0.000000   0.000050  -0.000017   0.000009
    24  C    0.000001   0.000000   0.000000  -0.000690   0.000434   0.000038
    25  C    0.000000   0.000000   0.000000   0.000000   0.000000   0.000001
    26  C    0.000000   0.000000   0.000000   0.000001   0.000000   0.000000
    27  C    0.000000   0.000000   0.000000   0.000000   0.000000   0.000000
    28  C    0.000000   0.000000   0.000000   0.000000   0.000000   0.000000
    29  H    0.000645  -0.003252   0.000869  -0.000080   0.000303   0.000001
    30  H   -0.003054   0.000521  -0.000034   0.000722   0.000609   0.000001
    31  H    0.442170  -0.010350   0.000160   0.000194   0.000196   0.000002
    32  H   -0.010350   0.443995   0.002806   0.000370  -0.000080  -0.000013
    33  H    0.000160   0.002806   0.591581   0.000047  -0.000149  -0.000615
    34  H    0.000194   0.000370   0.000047   0.473975  -0.037012  -0.000118
    35  H    0.000196  -0.000080  -0.000149  -0.037012   0.543165   0.000153
    36  H    0.000002  -0.000013  -0.000615  -0.000118   0.000153   0.473181
    37  H   -0.000060   0.000192  -0.000604   0.000664  -0.000257  -0.027079
    38  H   -0.000002   0.000020  -0.006429  -0.000011   0.000172   0.000243
    39  H    0.000003  -0.000002   0.004941   0.000086  -0.000674  -0.000981
    40  H    0.000000   0.000000   0.000000   0.000000   0.000000   0.000001
    41  H    0.000000   0.000000   0.000000   0.000000   0.000000   0.000016
    42  H    0.000000   0.000000   0.000000   0.000000   0.000000   0.000000
    43  H    0.000000   0.000000   0.000000   0.000000   0.000000   0.000000
    44  H    0.000000   0.000000   0.000000   0.000006  -0.000001   0.000000
    45  H    0.000000   0.000000   0.000000   0.000000   0.000000   0.000000
    46  H    0.000000   0.000000   0.000000   0.000000   0.000000   0.000000
              37         38         39         40         41         42
     1  Cl   0.000201   0.000068   0.006335  -0.002891   0.000936  -0.000040
     2  F   -0.000002   0.000000   0.000000   0.001388  -0.043411  -0.006396
     3  F   -0.000029   0.000000   0.000000   0.000000   0.000000   0.000000
     4  O    0.000000   0.000000   0.000000   0.000000   0.000000   0.000000
     5  O    0.000000   0.000000   0.000000   0.000000   0.000000   0.000000
     6  O    0.000000   0.000000   0.000000  -0.000001   0.000000   0.000034
     7  N   -0.063621   0.000054   0.005787  -0.000003   0.000001   0.000000
     8  N    0.003875   0.328401   0.321133   0.000000   0.000000   0.000000
     9  N   -0.000001   0.000000   0.000000  -0.030322   0.000395  -0.006185
    10  C   -0.001922   0.000754  -0.009788   0.000000   0.000000   0.000000
    11  C    0.000462   0.003041  -0.000469   0.000000   0.000000   0.000000
    12  C   -0.000816   0.000271  -0.000033   0.000000   0.000000   0.000000
    13  C   -0.032944  -0.035843  -0.027282   0.000000   0.000000   0.000000
    14  C    0.000826  -0.002091   0.007267   0.000000   0.000000   0.000000
    15  C    0.365124   0.006123  -0.009257   0.000007   0.000000   0.000000
    16  C    0.004546  -0.000047   0.000102   0.000037   0.000184  -0.000005
    17  C    0.000003   0.000000   0.000005   0.309229  -0.014119  -0.022594
    18  C   -0.000007   0.000000   0.000000  -0.015224   0.292694  -0.013629
    19  C    0.000000   0.000000   0.000000  -0.012177  -0.025758   0.375237
    20  C    0.003545   0.000023   0.000413  -0.002719   0.001406  -0.000222
    21  C    0.000341   0.000000   0.000074   0.004990   0.000081   0.000446
    22  C   -0.001428  -0.000001   0.000032   0.000002  -0.000003   0.000000
    23  C   -0.000025   0.000000   0.000003   0.000565  -0.000065   0.000082
    24  C   -0.000123   0.000000  -0.000001  -0.000003   0.000002   0.000006
    25  C    0.000000   0.000000   0.000000  -0.002216   0.000560   0.002954
    26  C    0.000000   0.000000   0.000000   0.000003   0.000000   0.000064
    27  C    0.000000   0.000000   0.000000  -0.000022   0.000031   0.000413
    28  C    0.000000   0.000000   0.000000  -0.000001   0.000000   0.000147
    29  H   -0.000005   0.000469   0.000047   0.000000   0.000000   0.000000
    30  H   -0.000001  -0.000032  -0.000003   0.000000   0.000000   0.000000
    31  H   -0.000060  -0.000002   0.000003   0.000000   0.000000   0.000000
    32  H    0.000192   0.000020  -0.000002   0.000000   0.000000   0.000000
    33  H   -0.000604  -0.006429   0.004941   0.000000   0.000000   0.000000
    34  H    0.000664  -0.000011   0.000086   0.000000   0.000000   0.000000
    35  H   -0.000257   0.000172  -0.000674   0.000000   0.000000   0.000000
    36  H   -0.027079   0.000243  -0.000981   0.000001   0.000016   0.000000
    37  H    0.508927  -0.000122   0.000321   0.000000   0.000000   0.000000
    38  H   -0.000122   0.457147  -0.034160   0.000000   0.000000   0.000000
    39  H    0.000321  -0.034160   0.433356   0.000000   0.000000   0.000000
    40  H    0.000000   0.000000   0.000000   0.456537  -0.001084   0.001348
    41  H    0.000000   0.000000   0.000000  -0.001084   0.533894   0.000835
    42  H    0.000000   0.000000   0.000000   0.001348   0.000835   0.405653
    43  H    0.000000   0.000000   0.000000  -0.005363  -0.002606  -0.010891
    44  H    0.000000   0.000000   0.000000   0.000000   0.000000   0.000000
    45  H    0.000000   0.000000   0.000000   0.000198  -0.000009  -0.000605
    46  H    0.000000   0.000000   0.000000   0.000000   0.000000   0.000000
              43         44         45         46
     1  Cl   0.000031   0.000002  -0.000005   0.000000
     2  F    0.001723   0.000000   0.000022   0.000000
     3  F    0.000000   0.000374   0.000000   0.000000
     4  O    0.000000   0.011422  -0.000057   0.000230
     5  O    0.000000   0.000000   0.000346   0.250903
     6  O    0.000000   0.000000   0.012702   0.002721
     7  N    0.000000  -0.000089   0.000000   0.000000
     8  N    0.000000   0.000000   0.000000   0.000000
     9  N    0.000472  -0.000043  -0.034293   0.000001
    10  C    0.000000   0.000001   0.000000   0.000000
    11  C    0.000000   0.000000   0.000000   0.000000
    12  C    0.000000   0.000000   0.000000   0.000000
    13  C    0.000000   0.000000   0.000000   0.000000
    14  C    0.000000   0.000016   0.000000   0.000000
    15  C    0.000000  -0.000003   0.000000   0.000000
    16  C    0.000000  -0.001314  -0.000008   0.000000
    17  C   -0.004360   0.000006  -0.004113   0.000000
    18  C   -0.005899  -0.000001   0.000578   0.000000
    19  C    0.309497   0.000000   0.000324   0.000000
    20  C    0.000017   0.000819  -0.000303   0.000000
    21  C   -0.000187   0.001579  -0.003521   0.000007
    22  C    0.000000  -0.040414   0.000003   0.000000
    23  C    0.000001  -0.015035  -0.000087   0.000044
    24  C    0.000000   0.318975   0.000055  -0.000004
    25  C    0.000764  -0.000103   0.316291  -0.000354
    26  C   -0.000001   0.005006   0.003613   0.001467
    27  C   -0.000023   0.002745  -0.019284   0.004654
    28  C   -0.000001  -0.000017  -0.004981  -0.028301
    29  H    0.000000   0.000000   0.000000   0.000000
    30  H    0.000000   0.000000   0.000000   0.000000
    31  H    0.000000   0.000000   0.000000   0.000000
    32  H    0.000000   0.000000   0.000000   0.000000
    33  H    0.000000   0.000000   0.000000   0.000000
    34  H    0.000000   0.000006   0.000000   0.000000
    35  H    0.000000  -0.000001   0.000000   0.000000
    36  H    0.000000   0.000000   0.000000   0.000000
    37  H    0.000000   0.000000   0.000000   0.000000
    38  H    0.000000   0.000000   0.000000   0.000000
    39  H    0.000000   0.000000   0.000000   0.000000
    40  H   -0.005363   0.000000   0.000198   0.000000
    41  H   -0.002606   0.000000  -0.000009   0.000000
    42  H   -0.010891   0.000000  -0.000605   0.000000
    43  H    0.448924   0.000000  -0.000092   0.000000
    44  H    0.000000   0.413259   0.000000   0.000000
    45  H   -0.000092   0.000000   0.440457   0.000001
    46  H    0.000000   0.000000   0.000001   0.358657
 Mulliken charges:
               1
     1  Cl  -0.004306
     2  F   -0.247364
     3  F   -0.253579
     4  O   -0.278964
     5  O   -0.452580
     6  O   -0.346470
     7  N   -0.303733
     8  N   -0.652514
     9  N   -0.253289
    10  C    0.416842
    11  C   -0.585533
    12  C   -0.563510
    13  C   -0.198279
    14  C   -0.442952
    15  C   -0.423800
    16  C    0.443975
    17  C   -0.171426
    18  C    0.023081
    19  C   -0.553603
    20  C   -0.491999
    21  C    0.487447
    22  C    0.263516
    23  C    0.208552
    24  C   -0.621954
    25  C   -0.274993
    26  C    0.146924
    27  C    0.104219
    28  C    0.205859
    29  H    0.231725
    30  H    0.236469
    31  H    0.240455
    32  H    0.230802
    33  H    0.235295
    34  H    0.248874
    35  H    0.220497
    36  H    0.250965
    37  H    0.240018
    38  H    0.281953
    39  H    0.302747
    40  H    0.297719
    41  H    0.256018
    42  H    0.273347
    43  H    0.267997
    44  H    0.302810
    45  H    0.292769
    46  H    0.409975
 Sum of Mulliken charges =   0.00000
 Mulliken charges with hydrogens summed into heavy atoms:
               1
     1  Cl  -0.004306
     2  F   -0.247364
     3  F   -0.253579
     4  O   -0.278964
     5  O   -0.042605
     6  O   -0.346470
     7  N   -0.303733
     8  N   -0.067815
     9  N   -0.253289
    10  C    0.416842
    11  C   -0.117340
    12  C   -0.092253
    13  C    0.037016
    14  C    0.026420
    15  C    0.067183
    16  C    0.443975
    17  C    0.126293
    18  C    0.279099
    19  C   -0.012259
    20  C   -0.491999
    21  C    0.487447
    22  C    0.263516
    23  C    0.208552
    24  C   -0.319144
    25  C    0.017775
    26  C    0.146924
    27  C    0.104219
    28  C    0.205859
 Electronic spatial extent (au):  <R**2>=          12570.2410
 Charge=              0.0000 electrons
 Dipole moment (field-independent basis, Debye):
    X=             -3.8341    Y=              5.1773    Z=             -1.8728  Tot=              6.7092
 Quadrupole moment (field-independent basis, Debye-Ang):
   XX=           -162.7340   YY=           -167.1317   ZZ=           -167.4868
   XY=             14.4891   XZ=              0.1780   YZ=              3.8213
 Traceless Quadrupole moment (field-independent basis, Debye-Ang):
   XX=              3.0502   YY=             -1.3476   ZZ=             -1.7026
   XY=             14.4891   XZ=              0.1780   YZ=              3.8213
 Octapole moment (field-independent basis, Debye-Ang**2):
  XXX=           -108.4156  YYY=             99.1337  ZZZ=             -7.5168  XYY=             25.4759
  XXY=            -19.0735  XXZ=            -12.4567  XZZ=            -15.1602  YZZ=             -0.8717
  YYZ=             -7.0190  XYZ=              7.5653
 Hexadecapole moment (field-independent basis, Debye-Ang**3):
 XXXX=         -12017.2430 YYYY=          -3095.6748 ZZZZ=           -716.2088 XXXY=           -557.6521
 XXXZ=             92.7947 YYYX=            303.7612 YYYZ=             47.1416 ZZZX=             14.6415
 ZZZY=            -32.4070 XXYY=          -2626.9697 XXZZ=          -2098.7821 YYZZ=           -652.0131
 XXYZ=            125.7415 YYXZ=            -23.9529 ZZXY=            -39.1781
 N-N= 2.633864701965D+03 E-N=-8.391990272693D+03  KE= 1.322613122854D+03
 1\1\GINC-NODE043\FOpt\RM06\LANL2DZ\C19H18Cl1F2N3O3\SUPERCOMPUTO1\21-Ju
 l-2020\0\\#opt M06/lanl2dz integral=ultrafine geom=connectivity\\Title
  Card Required\\0,1\Cl,-0.8252729296,1.8482634239,-1.0555509135\F,1.12
 49067028,2.1026630489,2.1526252139\F,-1.6770364033,-2.8897696158,0.749
 7374353\O,3.2548292,-2.9038445606,0.3812906975\O,5.766161125,-2.136709
 449,-0.5584839199\O,6.1621159584,0.103101395,-0.5941309101\N,-2.599455
 2545,-0.3388020354,0.0426012907\N,-4.5069549691,1.7062083927,-1.069393
 9092\N,2.163058378,1.0359021085,-0.2752157161\C,-4.9239741974,-0.58923
 67084,-0.1195497258\C,-6.2635122752,-1.0335120158,-0.6459313604\C,-5.8
 794146287,-1.3192639007,0.804283\C,-4.6047623219,0.8870275089,0.133398
 7804\C,-3.6194360463,-1.2338245322,-0.5552189134\C,-3.2289555632,0.772
 6623012,0.7947547293\C,-1.2462583168,-0.6223878074,0.064831045\C,1.936
 3938894,2.4670979768,-0.1663104343\C,1.3714363237,3.0273684896,1.12114
 37711\C,2.8153768825,3.270134114,0.7972792154\C,-0.2454498698,0.327155
 2789,-0.2555071751\C,1.1398079272,0.0644729789,-0.1337903007\C,-0.7585
 545074,-1.9173239818,0.3818209628\C,1.5408658838,-1.2723004359,0.11129
 14189\C,0.5710653815,-2.2555443325,0.3599384691\C,3.4634796265,0.62688
 71935,-0.3892924542\C,2.962189531,-1.7212505219,0.0956993639\C,3.90680
 66354,-0.6670279146,-0.2727482836\C,5.3572032909,-0.8403749765,-0.4754
 100088\H,-7.018654561,-0.273271719,-0.8309252185\H,-6.2979222688,-1.87
 08112729,-1.3363074181\H,-5.648865251,-2.3445401812,1.0770647659\H,-6.
 3767123475,-0.7475363658,1.5832569357\H,-5.3395446508,1.3298516473,0.8
 184065236\H,-3.5352972939,-2.2674575724,-0.2022755909\H,-3.5120575776,
 -1.232585464,-1.6510090564\H,-2.6620056254,1.7041628437,0.7162953603\H
 ,-3.3288651446,0.5009915243,1.8555381434\H,-5.3428125468,1.7459332305,
 -1.6422308839\H,-3.649762941,1.5867173143,-1.6016496344\H,1.6213530893
 ,2.9581705192,-1.0791707859\H,0.6142513099,3.8015806603,1.0879787863\H
 ,3.5264184386,2.7148289628,1.402686637\H,3.1369649602,4.2588024525,0.4
 943508429\H,0.9059982795,-3.2649367593,0.5806578292\H,4.196210384,1.40
 84302981,-0.5716317629\H,6.739036294,-2.174829541,-0.6899958418\\Versi
 on=ES64L-G09RevD.01\State=1-A\HF=-1338.3400215\RMSD=6.220e-09\RMSF=4.2
 96e-06\Dipole=-1.5133342,2.044871,-0.7040844\Quadrupole=2.2190427,-1.0
 428407,-1.176202,10.7772797,0.2949491,2.8411001\PG=C01 [X(C19H18Cl1F2N
 3O3)]\\@


 ALL PAPERS THAT YOU SAVE WILL NEVER BE NEEDED UNTIL
 SUCH TIME AS THEY ARE DISPOSED OF, WHEN THEY BECOME
 ESSENTIAL.

           -- JOHN CORCORAN IN
              PAUL DICKSON'S "THE OFFICIAL RULES"
 Job cpu time:       0 days  6 hours  1 minutes 35.1 seconds.
 File lengths (MBytes):  RWF=     54 Int=      0 D2E=      0 Chk=      8 Scr=      1
 Normal termination of Gaussian 09 at Tue Jul 21 16:08:55 2020.
