 Entering Gaussian System, Link 0=g09
 Input=perfloxacino.gjf
 Output=perfloxacino.log
 Initial command:
 /usr/local/cluster_programs/g09/l1.exe "/tmp/scratch/64206.prometeo/Gau-17787.inp" -scrdir="/tmp/scratch/64206.prometeo/"
 Entering Link 1 = /usr/local/cluster_programs/g09/l1.exe PID=     17788.
  
 Copyright (c) 1988,1990,1992,1993,1995,1998,2003,2009,2013,
            Gaussian, Inc.  All Rights Reserved.
  
 This is part of the Gaussian(R) 09 program.  It is based on
 the Gaussian(R) 03 system (copyright 2003, Gaussian, Inc.),
 the Gaussian(R) 98 system (copyright 1998, Gaussian, Inc.),
 the Gaussian(R) 94 system (copyright 1995, Gaussian, Inc.),
 the Gaussian 92(TM) system (copyright 1992, Gaussian, Inc.),
 the Gaussian 90(TM) system (copyright 1990, Gaussian, Inc.),
 the Gaussian 88(TM) system (copyright 1988, Gaussian, Inc.),
 the Gaussian 86(TM) system (copyright 1986, Carnegie Mellon
 University), and the Gaussian 82(TM) system (copyright 1983,
 Carnegie Mellon University). Gaussian is a federally registered
 trademark of Gaussian, Inc.
  
 This software contains proprietary and confidential information,
 including trade secrets, belonging to Gaussian, Inc.
  
 This software is provided under written license and may be
 used, copied, transmitted, or stored only in accord with that
 written license.
  
 The following legend is applicable only to US Government
 contracts under FAR:
  
                    RESTRICTED RIGHTS LEGEND
  
 Use, reproduction and disclosure by the US Government is
 subject to restrictions as set forth in subparagraphs (a)
 and (c) of the Commercial Computer Software - Restricted
 Rights clause in FAR 52.227-19.
  
 Gaussian, Inc.
 340 Quinnipiac St., Bldg. 40, Wallingford CT 06492
  
  
 ---------------------------------------------------------------
 Warning -- This program may not be used in any manner that
 competes with the business of Gaussian, Inc. or will provide
 assistance to any competitor of Gaussian, Inc.  The licensee
 of this program is prohibited from giving any competitor of
 Gaussian, Inc. access to this program.  By using this program,
 the user acknowledges that Gaussian, Inc. is engaged in the
 business of creating and licensing software in the field of
 computational chemistry and represents and warrants to the
 licensee that it is not a competitor of Gaussian, Inc. and that
 it will not use this program in any manner prohibited above.
 ---------------------------------------------------------------
  

 Cite this work as:
 Gaussian 09, Revision D.01,
 M. J. Frisch, G. W. Trucks, H. B. Schlegel, G. E. Scuseria, 
 M. A. Robb, J. R. Cheeseman, G. Scalmani, V. Barone, B. Mennucci, 
 G. A. Petersson, H. Nakatsuji, M. Caricato, X. Li, H. P. Hratchian, 
 A. F. Izmaylov, J. Bloino, G. Zheng, J. L. Sonnenberg, M. Hada, 
 M. Ehara, K. Toyota, R. Fukuda, J. Hasegawa, M. Ishida, T. Nakajima, 
 Y. Honda, O. Kitao, H. Nakai, T. Vreven, J. A. Montgomery, Jr., 
 J. E. Peralta, F. Ogliaro, M. Bearpark, J. J. Heyd, E. Brothers, 
 K. N. Kudin, V. N. Staroverov, T. Keith, R. Kobayashi, J. Normand, 
 K. Raghavachari, A. Rendell, J. C. Burant, S. S. Iyengar, J. Tomasi, 
 M. Cossi, N. Rega, J. M. Millam, M. Klene, J. E. Knox, J. B. Cross, 
 V. Bakken, C. Adamo, J. Jaramillo, R. Gomperts, R. E. Stratmann, 
 O. Yazyev, A. J. Austin, R. Cammi, C. Pomelli, J. W. Ochterski, 
 R. L. Martin, K. Morokuma, V. G. Zakrzewski, G. A. Voth, 
 P. Salvador, J. J. Dannenberg, S. Dapprich, A. D. Daniels, 
 O. Farkas, J. B. Foresman, J. V. Ortiz, J. Cioslowski, 
 and D. J. Fox, Gaussian, Inc., Wallingford CT, 2013.
 
 ******************************************
 Gaussian 09:  ES64L-G09RevD.01 24-Apr-2013
                21-Jul-2020 
 ******************************************
 %nprocshared=20
 Will use up to   20 processors via shared memory.
 -----------------------------------------------------
 #opt M06/lanl2dz integral=ultrafine geom=connectivity
 -----------------------------------------------------
 1/14=-1,18=20,19=15,26=4,38=1,57=2/1,3;
 2/9=110,12=2,17=6,18=5,40=1/2;
 3/5=6,6=3,11=2,16=1,25=1,30=1,71=1,74=-54,75=-5/1,2,3;
 4//1;
 5/5=2,38=5/2;
 6/7=2,8=2,9=2,10=2,28=1/1;
 7//1,2,3,16;
 1/14=-1,18=20,19=15,26=4/3(2);
 2/9=110/2;
 99//99;
 2/9=110/2;
 3/5=6,6=3,11=2,16=1,25=1,30=1,71=1,74=-54,75=-5/1,2,3;
 4/5=5,16=3,69=1/1;
 5/5=2,38=5/2;
 7//1,2,3,16;
 1/14=-1,18=20,19=15,26=4/3(-5);
 2/9=110/2;
 6/7=2,8=2,9=2,10=2,19=2,28=1/1;
 99/9=1/99;
 -------------------
 Title Card Required
 -------------------
 Symbolic Z-matrix:
 Charge =  0 Multiplicity = 1
 F(PDBName=F1,ResName=MOL,ResNum=1) 0    -1.63161  -2.7501   -0.33723  L 
 O(PDBName=O2,ResName=MOL,ResNum=1) 0     3.31637  -2.41867  -0.3184   L 
 O(PDBName=O3,ResName=MOL,ResNum=1) 0     5.82216  -1.35451  -0.16186  L 
 O(PDBName=O4,ResName=MOL,ResNum=1) 0     6.01479   0.889     0.20721  L 
 N(PDBName=N5,ResName=MOL,ResNum=1) 0    -2.66145  -0.16341   0.09314  L 
 N(PDBName=N6,ResName=MOL,ResNum=1) 0    -5.48027   0.3379    0.23097  L 
 N(PDBName=N7,ResName=MOL,ResNum=1) 0     1.9699    1.45052   0.32562  L 
 C(PDBName=C8,ResName=MOL,ResNum=1) 0    -3.56373  -1.07303   0.8545   L 
 C(PDBName=C9,ResName=MOL,ResNum=1) 0    -3.18024   1.21511   0.01302  L 
 C(PDBName=C10,ResName=MOL,ResNum=1) 0    -4.96511  -1.05104   0.23517  L 
 C(PDBName=C11,ResName=MOL,ResNum=1) 0    -4.5968    1.19638  -0.58676  L 
 C(PDBName=C12,ResName=MOL,ResNum=1) 0    -1.28707  -0.39413   0.07425  L 
 C(PDBName=C13,ResName=MOL,ResNum=1) 0     1.03216   0.41189   0.16403  L 
 C(PDBName=C14,ResName=MOL,ResNum=1) 0    -0.35166   0.63949   0.23496  L 
 C(PDBName=C15,ResName=MOL,ResNum=1) 0    -6.8885    0.41101  -0.20953  L 
 C(PDBName=C16,ResName=MOL,ResNum=1) 0    -0.75991  -1.69385  -0.15276  L 
 C(PDBName=C17,ResName=MOL,ResNum=1) 0     1.51322  -0.89251  -0.04845  L 
 C(PDBName=C18,ResName=MOL,ResNum=1) 0     0.58601  -1.93033  -0.19778  L 
 C(PDBName=C19,ResName=MOL,ResNum=1) 0     1.54673   2.867     0.49806  L 
 C(PDBName=C20,ResName=MOL,ResNum=1) 0     2.95589  -1.24098  -0.12364  L 
 C(PDBName=C21,ResName=MOL,ResNum=1) 0     3.29723   1.16256   0.26653  L 
 C(PDBName=C22,ResName=MOL,ResNum=1) 0     3.82641  -0.08064   0.0578   L 
 C(PDBName=C23,ResName=MOL,ResNum=1) 0     1.15588   3.52035  -0.84091  L 
 C(PDBName=C24,ResName=MOL,ResNum=1) 0     5.29537  -0.10582   0.04691  L 
 H(PDBName=H25,ResName=MOL,ResNum=1) 0    -3.15383  -2.07716   0.81617  L 
 H(PDBName=H26,ResName=MOL,ResNum=1) 0    -3.63603  -0.73138   1.89721  L 
 H(PDBName=H27,ResName=MOL,ResNum=1) 0    -3.22149   1.68749   1.00701  L 
 H(PDBName=H28,ResName=MOL,ResNum=1) 0    -2.53025   1.80079  -0.64263  L 
 H(PDBName=H29,ResName=MOL,ResNum=1) 0    -4.91408  -1.47442  -0.78468  L 
 H(PDBName=H30,ResName=MOL,ResNum=1) 0    -5.63598  -1.66838   0.84204  L 
 H(PDBName=H31,ResName=MOL,ResNum=1) 0    -4.9991    2.21538  -0.58279  L 
 H(PDBName=H32,ResName=MOL,ResNum=1) 0    -4.5315    0.84366  -1.63301  L 
 H(PDBName=H33,ResName=MOL,ResNum=1) 0    -0.71689   1.63167   0.44462  L 
 H(PDBName=H34,ResName=MOL,ResNum=1) 0    -7.23155   1.44848  -0.13954  L 
 H(PDBName=H35,ResName=MOL,ResNum=1) 0    -7.50189  -0.20375   0.45699  L 
 H(PDBName=H36,ResName=MOL,ResNum=1) 0    -7.04085   0.06056  -1.24786  L 
 H(PDBName=H37,ResName=MOL,ResNum=1) 0     0.97187  -2.92583  -0.37406  L 
 H(PDBName=H38,ResName=MOL,ResNum=1) 0     0.72277   2.90033   1.21547  L 
 H(PDBName=H39,ResName=MOL,ResNum=1) 0     2.39361   3.39516   0.94341  L 
 H(PDBName=H40,ResName=MOL,ResNum=1) 0     3.98631   1.98863   0.4003   L 
 H(PDBName=H41,ResName=MOL,ResNum=1) 0     2.01132   3.51761  -1.52284  L 
 H(PDBName=H42,ResName=MOL,ResNum=1) 0     0.33428   2.97609  -1.31448  L 
 H(PDBName=H43,ResName=MOL,ResNum=1) 0     0.84369   4.5564   -0.67192  L 
 H(PDBName=H44,ResName=MOL,ResNum=1) 0     6.81507  -1.26075  -0.15046  L 
 
 Center=     -0.77429016      0.40074450     -0.01627711
 Residue   1 PDB Number     1_0 MOL charge    0.00000000 layers R        AvRTP=      0.00000000    270.00000000     90.00000000

 GradGradGradGradGradGradGradGradGradGradGradGradGradGradGradGradGradGrad
 Berny optimization.
 Initialization pass.
                           ----------------------------
                           !    Initial Parameters    !
                           ! (Angstroms and Degrees)  !
 --------------------------                            --------------------------
 ! Name  Definition              Value          Derivative Info.                !
 --------------------------------------------------------------------------------
 ! R1    R(1,16)                 1.3819         estimate D2E/DX2                !
 ! R2    R(2,20)                 1.2469         estimate D2E/DX2                !
 ! R3    R(3,24)                 1.3712         estimate D2E/DX2                !
 ! R4    R(3,44)                 0.9974         estimate D2E/DX2                !
 ! R5    R(4,24)                 1.2381         estimate D2E/DX2                !
 ! R6    R(5,8)                  1.4904         estimate D2E/DX2                !
 ! R7    R(5,9)                  1.4751         estimate D2E/DX2                !
 ! R8    R(5,12)                 1.3937         estimate D2E/DX2                !
 ! R9    R(6,10)                 1.4814         estimate D2E/DX2                !
 ! R10   R(6,11)                 1.4786         estimate D2E/DX2                !
 ! R11   R(6,15)                 1.4773         estimate D2E/DX2                !
 ! R12   R(7,13)                 1.4086         estimate D2E/DX2                !
 ! R13   R(7,19)                 1.4884         estimate D2E/DX2                !
 ! R14   R(7,21)                 1.3595         estimate D2E/DX2                !
 ! R15   R(8,10)                 1.5323         estimate D2E/DX2                !
 ! R16   R(8,25)                 1.0852         estimate D2E/DX2                !
 ! R17   R(8,26)                 1.0996         estimate D2E/DX2                !
 ! R18   R(9,11)                 1.5384         estimate D2E/DX2                !
 ! R19   R(9,27)                 1.1013         estimate D2E/DX2                !
 ! R20   R(9,28)                 1.0933         estimate D2E/DX2                !
 ! R21   R(10,29)                1.1054         estimate D2E/DX2                !
 ! R22   R(10,30)                1.0952         estimate D2E/DX2                !
 ! R23   R(11,31)                1.0955         estimate D2E/DX2                !
 ! R24   R(11,32)                1.106          estimate D2E/DX2                !
 ! R25   R(12,14)                1.4033         estimate D2E/DX2                !
 ! R26   R(12,16)                1.4208         estimate D2E/DX2                !
 ! R27   R(13,14)                1.4042         estimate D2E/DX2                !
 ! R28   R(13,17)                1.4064         estimate D2E/DX2                !
 ! R29   R(14,33)                1.0779         estimate D2E/DX2                !
 ! R30   R(15,34)                1.095          estimate D2E/DX2                !
 ! R31   R(15,35)                1.0947         estimate D2E/DX2                !
 ! R32   R(15,36)                1.1064         estimate D2E/DX2                !
 ! R33   R(16,18)                1.3673         estimate D2E/DX2                !
 ! R34   R(17,18)                1.3997         estimate D2E/DX2                !
 ! R35   R(17,20)                1.4861         estimate D2E/DX2                !
 ! R36   R(18,37)                1.0821         estimate D2E/DX2                !
 ! R37   R(19,23)                1.5403         estimate D2E/DX2                !
 ! R38   R(19,38)                1.093          estimate D2E/DX2                !
 ! R39   R(19,39)                1.0929         estimate D2E/DX2                !
 ! R40   R(20,22)                1.4619         estimate D2E/DX2                !
 ! R41   R(21,22)                1.3672         estimate D2E/DX2                !
 ! R42   R(21,40)                1.084          estimate D2E/DX2                !
 ! R43   R(22,24)                1.4692         estimate D2E/DX2                !
 ! R44   R(23,41)                1.094          estimate D2E/DX2                !
 ! R45   R(23,42)                1.0934         estimate D2E/DX2                !
 ! R46   R(23,43)                1.0952         estimate D2E/DX2                !
 ! A1    A(24,3,44)            107.1634         estimate D2E/DX2                !
 ! A2    A(8,5,9)              112.6563         estimate D2E/DX2                !
 ! A3    A(8,5,12)             120.1913         estimate D2E/DX2                !
 ! A4    A(9,5,12)             120.0519         estimate D2E/DX2                !
 ! A5    A(10,6,11)            109.765          estimate D2E/DX2                !
 ! A6    A(10,6,15)            112.2553         estimate D2E/DX2                !
 ! A7    A(11,6,15)            112.0815         estimate D2E/DX2                !
 ! A8    A(13,7,19)            121.7183         estimate D2E/DX2                !
 ! A9    A(13,7,21)            119.2617         estimate D2E/DX2                !
 ! A10   A(19,7,21)            118.9609         estimate D2E/DX2                !
 ! A11   A(5,8,10)             109.782          estimate D2E/DX2                !
 ! A12   A(5,8,25)             108.5421         estimate D2E/DX2                !
 ! A13   A(5,8,26)             109.5471         estimate D2E/DX2                !
 ! A14   A(10,8,25)            110.1478         estimate D2E/DX2                !
 ! A15   A(10,8,26)            108.5829         estimate D2E/DX2                !
 ! A16   A(25,8,26)            110.2306         estimate D2E/DX2                !
 ! A17   A(5,9,11)             109.4899         estimate D2E/DX2                !
 ! A18   A(5,9,27)             111.4073         estimate D2E/DX2                !
 ! A19   A(5,9,28)             108.9106         estimate D2E/DX2                !
 ! A20   A(11,9,27)            108.8212         estimate D2E/DX2                !
 ! A21   A(11,9,28)            108.6715         estimate D2E/DX2                !
 ! A22   A(27,9,28)            109.4963         estimate D2E/DX2                !
 ! A23   A(6,10,8)             109.4294         estimate D2E/DX2                !
 ! A24   A(6,10,29)            111.8721         estimate D2E/DX2                !
 ! A25   A(6,10,30)            108.485          estimate D2E/DX2                !
 ! A26   A(8,10,29)            108.9765         estimate D2E/DX2                !
 ! A27   A(8,10,30)            109.157          estimate D2E/DX2                !
 ! A28   A(29,10,30)           108.8813         estimate D2E/DX2                !
 ! A29   A(6,11,9)             109.9765         estimate D2E/DX2                !
 ! A30   A(6,11,31)            108.5805         estimate D2E/DX2                !
 ! A31   A(6,11,32)            111.9173         estimate D2E/DX2                !
 ! A32   A(9,11,31)            108.989          estimate D2E/DX2                !
 ! A33   A(9,11,32)            108.561          estimate D2E/DX2                !
 ! A34   A(31,11,32)           108.7677         estimate D2E/DX2                !
 ! A35   A(5,12,14)            122.2657         estimate D2E/DX2                !
 ! A36   A(5,12,16)            121.2969         estimate D2E/DX2                !
 ! A37   A(14,12,16)           116.4087         estimate D2E/DX2                !
 ! A38   A(7,13,14)            122.0557         estimate D2E/DX2                !
 ! A39   A(7,13,17)            118.2602         estimate D2E/DX2                !
 ! A40   A(14,13,17)           119.6723         estimate D2E/DX2                !
 ! A41   A(12,14,13)           122.1232         estimate D2E/DX2                !
 ! A42   A(12,14,33)           118.3219         estimate D2E/DX2                !
 ! A43   A(13,14,33)           119.5354         estimate D2E/DX2                !
 ! A44   A(6,15,34)            109.0554         estimate D2E/DX2                !
 ! A45   A(6,15,35)            108.9519         estimate D2E/DX2                !
 ! A46   A(6,15,36)            113.291          estimate D2E/DX2                !
 ! A47   A(34,15,35)           108.5189         estimate D2E/DX2                !
 ! A48   A(34,15,36)           108.4795         estimate D2E/DX2                !
 ! A49   A(35,15,36)           108.4424         estimate D2E/DX2                !
 ! A50   A(1,16,12)            119.1107         estimate D2E/DX2                !
 ! A51   A(1,16,18)            118.9708         estimate D2E/DX2                !
 ! A52   A(12,16,18)           121.9183         estimate D2E/DX2                !
 ! A53   A(13,17,18)           118.5036         estimate D2E/DX2                !
 ! A54   A(13,17,20)           123.8613         estimate D2E/DX2                !
 ! A55   A(18,17,20)           117.635          estimate D2E/DX2                !
 ! A56   A(16,18,17)           121.3555         estimate D2E/DX2                !
 ! A57   A(16,18,37)           121.0298         estimate D2E/DX2                !
 ! A58   A(17,18,37)           117.5992         estimate D2E/DX2                !
 ! A59   A(7,19,23)            112.0319         estimate D2E/DX2                !
 ! A60   A(7,19,38)            108.6268         estimate D2E/DX2                !
 ! A61   A(7,19,39)            106.6671         estimate D2E/DX2                !
 ! A62   A(23,19,38)           111.4903         estimate D2E/DX2                !
 ! A63   A(23,19,39)           110.2345         estimate D2E/DX2                !
 ! A64   A(38,19,39)           107.5739         estimate D2E/DX2                !
 ! A65   A(2,20,17)            120.666          estimate D2E/DX2                !
 ! A66   A(2,20,22)            126.6474         estimate D2E/DX2                !
 ! A67   A(17,20,22)           112.6861         estimate D2E/DX2                !
 ! A68   A(7,21,22)            125.2502         estimate D2E/DX2                !
 ! A69   A(7,21,40)            116.9914         estimate D2E/DX2                !
 ! A70   A(22,21,40)           117.7579         estimate D2E/DX2                !
 ! A71   A(20,22,21)           120.6787         estimate D2E/DX2                !
 ! A72   A(20,22,24)           125.5099         estimate D2E/DX2                !
 ! A73   A(21,22,24)           113.8105         estimate D2E/DX2                !
 ! A74   A(19,23,41)           110.0227         estimate D2E/DX2                !
 ! A75   A(19,23,42)           110.8573         estimate D2E/DX2                !
 ! A76   A(19,23,43)           109.845          estimate D2E/DX2                !
 ! A77   A(41,23,42)           108.4415         estimate D2E/DX2                !
 ! A78   A(41,23,43)           108.751          estimate D2E/DX2                !
 ! A79   A(42,23,43)           108.8763         estimate D2E/DX2                !
 ! A80   A(3,24,4)             121.8821         estimate D2E/DX2                !
 ! A81   A(3,24,22)            113.6307         estimate D2E/DX2                !
 ! A82   A(4,24,22)            124.4872         estimate D2E/DX2                !
 ! D1    D(44,3,24,4)            0.0701         estimate D2E/DX2                !
 ! D2    D(44,3,24,22)        -179.9729         estimate D2E/DX2                !
 ! D3    D(9,5,8,10)            55.8564         estimate D2E/DX2                !
 ! D4    D(9,5,8,25)           176.3021         estimate D2E/DX2                !
 ! D5    D(9,5,8,26)           -63.2919         estimate D2E/DX2                !
 ! D6    D(12,5,8,10)         -153.6061         estimate D2E/DX2                !
 ! D7    D(12,5,8,25)          -33.1603         estimate D2E/DX2                !
 ! D8    D(12,5,8,26)           87.2457         estimate D2E/DX2                !
 ! D9    D(8,5,9,11)           -55.3806         estimate D2E/DX2                !
 ! D10   D(8,5,9,27)            65.0395         estimate D2E/DX2                !
 ! D11   D(8,5,9,28)          -174.0807         estimate D2E/DX2                !
 ! D12   D(12,5,9,11)          154.0361         estimate D2E/DX2                !
 ! D13   D(12,5,9,27)          -85.5437         estimate D2E/DX2                !
 ! D14   D(12,5,9,28)           35.336          estimate D2E/DX2                !
 ! D15   D(8,5,12,14)         -136.0448         estimate D2E/DX2                !
 ! D16   D(8,5,12,16)           45.9735         estimate D2E/DX2                !
 ! D17   D(9,5,12,14)           12.328          estimate D2E/DX2                !
 ! D18   D(9,5,12,16)         -165.6537         estimate D2E/DX2                !
 ! D19   D(11,6,10,8)           61.2351         estimate D2E/DX2                !
 ! D20   D(11,6,10,29)         -59.6396         estimate D2E/DX2                !
 ! D21   D(11,6,10,30)        -179.764          estimate D2E/DX2                !
 ! D22   D(15,6,10,8)         -173.4088         estimate D2E/DX2                !
 ! D23   D(15,6,10,29)          65.7165         estimate D2E/DX2                !
 ! D24   D(15,6,10,30)         -54.4079         estimate D2E/DX2                !
 ! D25   D(10,6,11,9)          -61.2496         estimate D2E/DX2                !
 ! D26   D(10,6,11,31)         179.5773         estimate D2E/DX2                !
 ! D27   D(10,6,11,32)          59.5032         estimate D2E/DX2                !
 ! D28   D(15,6,11,9)          173.2947         estimate D2E/DX2                !
 ! D29   D(15,6,11,31)          54.1216         estimate D2E/DX2                !
 ! D30   D(15,6,11,32)         -65.9525         estimate D2E/DX2                !
 ! D31   D(10,6,15,34)         176.8619         estimate D2E/DX2                !
 ! D32   D(10,6,15,35)          58.5741         estimate D2E/DX2                !
 ! D33   D(10,6,15,36)         -62.2218         estimate D2E/DX2                !
 ! D34   D(11,6,15,34)         -59.0604         estimate D2E/DX2                !
 ! D35   D(11,6,15,35)        -177.3482         estimate D2E/DX2                !
 ! D36   D(11,6,15,36)          61.8559         estimate D2E/DX2                !
 ! D37   D(19,7,13,14)          -3.8343         estimate D2E/DX2                !
 ! D38   D(19,7,13,17)         177.4202         estimate D2E/DX2                !
 ! D39   D(21,7,13,14)         178.9922         estimate D2E/DX2                !
 ! D40   D(21,7,13,17)           0.2467         estimate D2E/DX2                !
 ! D41   D(13,7,19,23)         -78.8041         estimate D2E/DX2                !
 ! D42   D(13,7,19,38)          44.7998         estimate D2E/DX2                !
 ! D43   D(13,7,19,39)         160.4903         estimate D2E/DX2                !
 ! D44   D(21,7,19,23)          98.3777         estimate D2E/DX2                !
 ! D45   D(21,7,19,38)        -138.0185         estimate D2E/DX2                !
 ! D46   D(21,7,19,39)         -22.328          estimate D2E/DX2                !
 ! D47   D(13,7,21,22)           0.0219         estimate D2E/DX2                !
 ! D48   D(13,7,21,40)        -179.7228         estimate D2E/DX2                !
 ! D49   D(19,7,21,22)        -177.2302         estimate D2E/DX2                !
 ! D50   D(19,7,21,40)           3.0251         estimate D2E/DX2                !
 ! D51   D(5,8,10,6)           -57.5813         estimate D2E/DX2                !
 ! D52   D(5,8,10,29)           65.0363         estimate D2E/DX2                !
 ! D53   D(5,8,10,30)         -176.1655         estimate D2E/DX2                !
 ! D54   D(25,8,10,6)         -177.0489         estimate D2E/DX2                !
 ! D55   D(25,8,10,29)         -54.4313         estimate D2E/DX2                !
 ! D56   D(25,8,10,30)          64.3669         estimate D2E/DX2                !
 ! D57   D(26,8,10,6)           62.1573         estimate D2E/DX2                !
 ! D58   D(26,8,10,29)        -175.2251         estimate D2E/DX2                !
 ! D59   D(26,8,10,30)         -56.4269         estimate D2E/DX2                !
 ! D60   D(5,9,11,6)            57.4655         estimate D2E/DX2                !
 ! D61   D(5,9,11,31)          176.3885         estimate D2E/DX2                !
 ! D62   D(5,9,11,32)          -65.2871         estimate D2E/DX2                !
 ! D63   D(27,9,11,6)          -64.5186         estimate D2E/DX2                !
 ! D64   D(27,9,11,31)          54.4044         estimate D2E/DX2                !
 ! D65   D(27,9,11,32)         172.7288         estimate D2E/DX2                !
 ! D66   D(28,9,11,6)          176.3138         estimate D2E/DX2                !
 ! D67   D(28,9,11,31)         -64.7633         estimate D2E/DX2                !
 ! D68   D(28,9,11,32)          53.5611         estimate D2E/DX2                !
 ! D69   D(5,12,14,13)        -177.4917         estimate D2E/DX2                !
 ! D70   D(5,12,14,33)           4.1237         estimate D2E/DX2                !
 ! D71   D(16,12,14,13)          0.5827         estimate D2E/DX2                !
 ! D72   D(16,12,14,33)       -177.8018         estimate D2E/DX2                !
 ! D73   D(5,12,16,1)           -1.0161         estimate D2E/DX2                !
 ! D74   D(5,12,16,18)         178.8046         estimate D2E/DX2                !
 ! D75   D(14,12,16,1)        -179.1106         estimate D2E/DX2                !
 ! D76   D(14,12,16,18)          0.7101         estimate D2E/DX2                !
 ! D77   D(7,13,14,12)        -179.997          estimate D2E/DX2                !
 ! D78   D(7,13,14,33)          -1.6315         estimate D2E/DX2                !
 ! D79   D(17,13,14,12)         -1.2688         estimate D2E/DX2                !
 ! D80   D(17,13,14,33)        177.0968         estimate D2E/DX2                !
 ! D81   D(7,13,17,18)         179.4394         estimate D2E/DX2                !
 ! D82   D(7,13,17,20)          -0.4988         estimate D2E/DX2                !
 ! D83   D(14,13,17,18)          0.6631         estimate D2E/DX2                !
 ! D84   D(14,13,17,20)       -179.2752         estimate D2E/DX2                !
 ! D85   D(1,16,18,17)         178.5017         estimate D2E/DX2                !
 ! D86   D(1,16,18,37)          -0.03           estimate D2E/DX2                !
 ! D87   D(12,16,18,17)         -1.3192         estimate D2E/DX2                !
 ! D88   D(12,16,18,37)       -179.8509         estimate D2E/DX2                !
 ! D89   D(13,17,18,16)          0.6031         estimate D2E/DX2                !
 ! D90   D(13,17,18,37)        179.1834         estimate D2E/DX2                !
 ! D91   D(20,17,18,16)       -179.4548         estimate D2E/DX2                !
 ! D92   D(20,17,18,37)         -0.8745         estimate D2E/DX2                !
 ! D93   D(13,17,20,2)        -179.7912         estimate D2E/DX2                !
 ! D94   D(13,17,20,22)          0.4467         estimate D2E/DX2                !
 ! D95   D(18,17,20,2)           0.27           estimate D2E/DX2                !
 ! D96   D(18,17,20,22)       -179.492          estimate D2E/DX2                !
 ! D97   D(7,19,23,41)         -60.7648         estimate D2E/DX2                !
 ! D98   D(7,19,23,42)          59.1785         estimate D2E/DX2                !
 ! D99   D(7,19,23,43)         179.5484         estimate D2E/DX2                !
 ! D100  D(38,19,23,41)        177.2545         estimate D2E/DX2                !
 ! D101  D(38,19,23,42)        -62.8022         estimate D2E/DX2                !
 ! D102  D(38,19,23,43)         57.5677         estimate D2E/DX2                !
 ! D103  D(39,19,23,41)         57.8503         estimate D2E/DX2                !
 ! D104  D(39,19,23,42)        177.7937         estimate D2E/DX2                !
 ! D105  D(39,19,23,43)        -61.8364         estimate D2E/DX2                !
 ! D106  D(2,20,22,21)        -179.9101         estimate D2E/DX2                !
 ! D107  D(2,20,22,24)          -0.2704         estimate D2E/DX2                !
 ! D108  D(17,20,22,21)         -0.1652         estimate D2E/DX2                !
 ! D109  D(17,20,22,24)        179.4745         estimate D2E/DX2                !
 ! D110  D(7,21,22,20)          -0.0538         estimate D2E/DX2                !
 ! D111  D(7,21,22,24)        -179.7332         estimate D2E/DX2                !
 ! D112  D(40,21,22,20)        179.6891         estimate D2E/DX2                !
 ! D113  D(40,21,22,24)          0.0097         estimate D2E/DX2                !
 ! D114  D(20,22,24,3)           0.3001         estimate D2E/DX2                !
 ! D115  D(20,22,24,4)        -179.7441         estimate D2E/DX2                !
 ! D116  D(21,22,24,3)         179.9614         estimate D2E/DX2                !
 ! D117  D(21,22,24,4)          -0.0829         estimate D2E/DX2                !
 --------------------------------------------------------------------------------
 Trust Radius=3.00D-01 FncErr=1.00D-07 GrdErr=1.00D-06
 Number of steps in this run=    255 maximum allowed number of steps=    264.
 GradGradGradGradGradGradGradGradGradGradGradGradGradGradGradGradGradGrad

                          Input orientation:                          
 ---------------------------------------------------------------------
 Center     Atomic      Atomic             Coordinates (Angstroms)
 Number     Number       Type             X           Y           Z
 ---------------------------------------------------------------------
      1          9           0       -1.631611   -2.750098   -0.337226
      2          8           0        3.316374   -2.418670   -0.318396
      3          8           0        5.822163   -1.354509   -0.161856
      4          8           0        6.014788    0.889000    0.207212
      5          7           0       -2.661449   -0.163413    0.093141
      6          7           0       -5.480267    0.337895    0.230965
      7          7           0        1.969896    1.450521    0.325620
      8          6           0       -3.563734   -1.073034    0.854504
      9          6           0       -3.180240    1.215113    0.013019
     10          6           0       -4.965113   -1.051036    0.235168
     11          6           0       -4.596802    1.196383   -0.586761
     12          6           0       -1.287072   -0.394134    0.074252
     13          6           0        1.032156    0.411889    0.164025
     14          6           0       -0.351657    0.639488    0.234956
     15          6           0       -6.888499    0.411012   -0.209530
     16          6           0       -0.759912   -1.693849   -0.152764
     17          6           0        1.513218   -0.892514   -0.048449
     18          6           0        0.586008   -1.930328   -0.197784
     19          6           0        1.546728    2.866996    0.498060
     20          6           0        2.955888   -1.240984   -0.123642
     21          6           0        3.297229    1.162562    0.266527
     22          6           0        3.826406   -0.080638    0.057803
     23          6           0        1.155882    3.520351   -0.840905
     24          6           0        5.295374   -0.105823    0.046909
     25          1           0       -3.153832   -2.077157    0.816173
     26          1           0       -3.636028   -0.731380    1.897207
     27          1           0       -3.221487    1.687491    1.007011
     28          1           0       -2.530247    1.800786   -0.642628
     29          1           0       -4.914080   -1.474416   -0.784678
     30          1           0       -5.635982   -1.668382    0.842037
     31          1           0       -4.999096    2.215384   -0.582792
     32          1           0       -4.531504    0.843662   -1.633005
     33          1           0       -0.716893    1.631668    0.444623
     34          1           0       -7.231550    1.448484   -0.139539
     35          1           0       -7.501888   -0.203747    0.456989
     36          1           0       -7.040849    0.060558   -1.247860
     37          1           0        0.971870   -2.925833   -0.374060
     38          1           0        0.722769    2.900334    1.215467
     39          1           0        2.393611    3.395156    0.943411
     40          1           0        3.986307    1.988626    0.400296
     41          1           0        2.011322    3.517608   -1.522839
     42          1           0        0.334277    2.976089   -1.314481
     43          1           0        0.843692    4.556395   -0.671918
     44          1           0        6.815067   -1.260748   -0.150455
 ---------------------------------------------------------------------
                    Distance matrix (angstroms):
                    1          2          3          4          5
     1  F    0.000000
     2  O    4.959108   0.000000
     3  O    7.585326   2.726889   0.000000
     4  O    8.485686   4.300975   2.281808   0.000000
     5  N    2.817219   6.402337   8.570613   8.740576   0.000000
     6  N    4.966960   9.234790  11.435185  11.508283   2.866364
     7  N    5.572739   4.147095   4.790176   4.085398   4.910009
     8  C    2.822386   7.107905   9.444960   9.798809   1.490370
     9  C    4.271279   7.451188   9.363589   9.202858   1.475092
    10  C    3.785060   8.411889  10.798845  11.150011   2.472835
    11  C    4.942604   8.703964  10.735103  10.645690   2.461078
    12  C    2.416317   5.044267   7.177694   7.414936   1.393736
    13  C    4.164741   3.669121   5.115714   5.005609   3.738812
    14  C    3.668101   4.807596   6.499964   6.371393   2.449469
    15  C    6.135454  10.590486  12.832781  12.918861   4.276625
    16  C    1.381864   4.143538   6.590823   7.259287   2.453273
    17  C    3.663872   2.377687   4.335125   4.848019   4.240222
    18  C    2.368396   2.776315   5.267844   6.130602   3.708450
    19  C    6.507787   5.633517   6.044497   4.894959   5.201547
    20  C    4.834066   1.246926   2.868777   3.742080   5.723865
    21  C    6.321937   3.628736   3.590884   2.731937   6.106891
    22  C    6.088679   2.422406   2.377823   2.398236   6.488479
    23  C    6.880577   6.341349   6.782297   5.624191   5.386518
    24  C    7.424478   3.065803   1.371243   1.238114   7.957166
    25  H    2.024929   6.577799   9.057994   9.655699   2.104194
    26  H    3.617402   7.489442   9.699763   9.930758   2.127685
    27  H    4.901722   7.833319   9.612888   9.305162   2.138842
    28  H    4.648802   7.217473   8.941464   8.635462   2.101582
    29  H    3.549955   8.297554  10.754962  11.225406   2.750208
    30  H    4.312280   9.058378  11.506320  11.945026   3.416668
    31  H    6.004687   9.523203  11.402674  11.121558   3.402963
    32  H    4.796200   8.600011  10.686190  10.705733   2.736948
    33  H    4.543993   5.766687   7.214175   6.776684   2.669673
    34  H    7.001892  11.235905  13.351280  13.262682   4.851616
    35  H    6.447855  11.069864  13.387963  13.563075   4.854262
    36  H    6.163513  10.690301  12.986104  13.162568   4.585585
    37  H    2.609665   2.399377   5.102885   6.349949   4.588055
    38  H    6.315168   6.113209   6.782664   5.750435   4.700967
    39  H    7.456983   6.020317   5.961200   4.464945   6.240193
    40  H    7.386504   4.515483   3.855248   2.315425   6.994160
    41  H    7.345800   6.196228   6.333428   5.092190   6.164097
    42  H    6.132614   6.244078   7.085162   6.240168   4.562044
    43  H    7.721657   7.408824   7.744942   6.400226   5.928568
    44  H    8.579010   3.689152   0.997386   2.321592   9.542947
                    6          7          8          9         10
     6  N    0.000000
     7  N    7.533381   0.000000
     8  C    2.460207   6.104843   0.000000
     9  C    2.471262   5.164982   2.467951   0.000000
    10  C    1.481395   7.372945   1.532294   2.893191   0.000000
    11  C    1.478576   6.634648   2.880057   1.538420   2.421180
    12  C    4.259496   3.751503   2.500578   2.485460   3.739706
    13  C    6.513187   1.408625   4.878930   4.290950   6.173528
    14  C    5.137472   2.460813   3.692426   2.895079   4.913435
    15  C    1.477328   8.935218   3.793234   3.800959   2.456574
    16  C    5.153347   4.191392   3.043258   3.787814   4.271699
    17  C    7.106392   2.416256   5.159782   5.145330   6.486474
    18  C    6.490636   3.690425   4.366076   4.911503   5.636980
    19  C    7.473042   1.488358   6.462794   5.030726   7.604220
    20  C    8.589954   2.901416   6.594729   6.610836   7.931398
    21  C    8.816222   1.359494   7.239918   6.482641   8.553788
    22  C    9.317688   2.421323   7.498917   7.125592   8.846691
    23  C    7.437433   2.511493   6.800616   4.984502   7.715056
    24  C   10.786343   3.682213   8.948268   8.577998  10.305652
    25  H    3.404004   6.240011   1.085243   3.388922   2.161303
    26  H    2.705722   6.217472   1.099629   2.747133   2.151981
    27  H    2.743309   5.241269   2.785837   1.101300   3.336990
    28  H    3.406733   4.616436   3.401226   1.093333   3.851232
    29  H    2.153270   7.561557   2.161356   3.297891   1.105414
    30  H    2.103046   8.236724   2.156109   3.877175   1.095204
    31  H    2.102068   7.069447   3.865201   2.159576   3.367449
    32  H    2.151821   6.817088   3.286032   2.161778   2.695917
    33  H    4.940570   2.695517   3.948154   2.535326   5.028732
    34  H    2.106579   9.213196   4.560597   4.060893   3.394811
    35  H    2.105092   9.616057   4.052497   4.570220   2.683716
    36  H    2.167777   9.252100   4.218447   4.222217   2.782749
    37  H    7.255897   4.542916   5.051132   5.876843   6.255701
    38  H    6.783288   2.109292   5.855942   4.418069   6.994735
    39  H    8.476578   2.083940   7.447321   6.056900   8.626764
    40  H    9.610911   2.088312   8.159852   7.218566   9.454879
    41  H    8.325281   2.773331   7.603092   5.883252   8.522543
    42  H    6.569429   2.773543   6.024482   4.149111   6.833936
    43  H    7.655286   3.451068   7.310666   5.274972   8.124549
    44  H   12.404692   5.572550  10.429031  10.298678  11.788355
                   11         12         13         14         15
    11  C    0.000000
    12  C    3.731085   0.000000
    13  C    5.732737   2.456939   0.000000
    14  C    4.359657   1.403282   1.404198   0.000000
    15  C    2.451731   5.666108   7.929459   6.555919   0.000000
    16  C    4.823227   1.420807   2.783163   2.400304   6.480219
    17  C    6.479631   2.846939   1.406426   2.430043   8.503762
    18  C    6.065406   2.437688   2.411625   2.769555   7.832641
    19  C    6.458386   4.341083   2.530596   2.938517   8.813943
    20  C    7.949740   4.331169   2.552545   3.821599   9.982406
    21  C    7.940086   4.845213   2.388425   3.686322  10.224505
    22  C    8.543809   5.123105   2.839313   4.243368  10.729510
    23  C    6.209572   4.704118   3.269209   3.424839   8.647467
    24  C    9.997621   6.588814   4.296134   5.699106  12.197526
    25  H    3.842714   2.620650   4.913567   3.945904   4.603345
    26  H    3.287773   2.992406   5.109102   3.928034   4.040046
    27  H    2.161663   2.990847   4.520096   3.151238   4.068949
    28  H    2.153851   2.622418   3.907741   2.620119   4.594933
    29  H    2.696851   3.880716   6.309985   5.130687   2.789976
    30  H    3.365745   4.596327   7.017926   5.798181   2.645462
    31  H    1.095545   4.584802   6.339269   4.975023   2.639115
    32  H    1.106030   3.869523   5.862598   4.582803   2.787273
    33  H    4.038183   2.136856   2.150760   1.077858   6.325080
    34  H    2.684299   6.227180   8.333998   6.937409   1.094957
    35  H    3.389587   6.229500   8.561235   7.203204   1.094725
    36  H    2.774980   5.921206   8.203064   6.875987   1.106417
    37  H    6.931667   3.422470   3.381354   3.851511   8.540902
    38  H    5.869353   4.024345   2.719119   2.688349   8.133802
    39  H    7.486114   5.353651   3.370591   3.953746   9.817940
    40  H    8.675926   5.795893   3.356923   4.545926  11.005551
    41  H    7.066232   5.360208   3.667392   4.117898   9.517486
    42  H    5.292681   3.989455   3.041075   2.886341   7.743967
    43  H    6.394991   5.441017   4.232168   4.194453   8.785487
    44  H   11.681550   8.151452   6.028157   7.424377  13.805289
                   16         17         18         19         20
    16  C    0.000000
    17  C    2.412497   0.000000
    18  C    1.367278   1.399670   0.000000
    19  C    5.152229   3.799172   4.941811   0.000000
    20  C    3.743408   1.486063   2.469215   4.387225   0.000000
    21  C    4.979486   2.739570   4.139115   2.454171   2.458817
    22  C    4.866323   2.453828   3.739901   3.752240   1.461891
    23  C    5.597471   4.497672   5.517994   1.540279   5.140506
    24  C    6.263241   3.864283   5.056364   4.805574   2.605930
    25  H    2.610865   4.892066   3.877637   6.829430   6.237878
    26  H    3.660706   5.506930   4.863337   6.462730   6.913529
    27  H    4.340264   5.494347   5.388614   4.938232   6.929235
    28  H    3.947978   4.894540   4.881613   4.365741   6.294393
    29  H    4.207681   6.495445   5.550069   7.888936   7.901130
    30  H    4.976579   7.246102   6.313715   8.501723   8.656526
    31  H    5.782535   7.235661   6.966243   6.666382   8.685567
    32  H    4.780688   6.485660   5.995316   6.751313   7.917384
    33  H    3.379021   3.404117   3.846824   2.579316   4.697273
    34  H    7.194201   9.053151   8.516688   8.914980  10.536479
    35  H    6.931554   9.055496   8.296015   9.555553  10.525116
    36  H    6.612666   8.690167   7.952058   9.201674  10.143600
    37  H    2.136779   2.129194   1.082124   5.886249   2.614910
    38  H    5.017660   4.075290   5.035005   1.093020   4.891886
    39  H    6.086401   4.488094   5.738513   1.092932   4.790465
    40  H    6.032669   3.823416   5.222828   2.594733   3.430256
    41  H    6.059383   4.676656   5.785093   2.173287   5.049174
    42  H    4.935094   4.237786   5.038185   2.183402   5.106334
    43  H    6.473532   5.525178   6.509130   2.171906   6.194480
    44  H    7.587351   5.315600   6.265122   6.724153   3.859323
                   21         22         23         24         25
    21  C    0.000000
    22  C    1.367165   0.000000
    23  C    3.372083   4.572362   0.000000
    24  C    2.376892   1.469224   5.574293   0.000000
    25  H    7.239757   7.299653   7.256145   8.710167   0.000000
    26  H    7.369952   7.713287   6.966841   9.142476   1.792279
    27  H    6.581605   7.328033   5.092694   8.756409   3.770089
    28  H    5.932400   6.666138   4.072317   8.083994   4.189917
    29  H    8.688169   8.890922   7.860999  10.334289   2.454484
    30  H    9.388701   9.626668   8.711180  11.071060   2.515718
    31  H    8.405878   9.141748   6.297088  10.571690   4.877295
    32  H    8.062194   8.577169   6.335491  10.014548   4.053102
    33  H    4.045362   4.870645   2.954148   6.270917   4.453325
    34  H   10.540485  11.164925   8.667962  12.624360   5.474606
    35  H   10.886873  11.335994   9.513696  12.804205   4.748081
    36  H   10.506362  10.946320   8.906300  12.405100   4.892746
    37  H    4.746854   4.053396   6.465686   5.179031   4.377022
    38  H    3.247797   4.456337   2.191044   5.595643   6.321621
    39  H    2.501834   3.862428   2.175185   4.634738   7.793364
    40  H    1.084022   2.103503   3.449357   2.495046   8.227097
    41  H    3.225156   4.329011   1.093992   5.135987   7.965625
    42  H    3.816746   4.839598   1.093403   5.997003   6.499376
    43  H    4.291693   5.561578   1.095174   6.486175   7.886610
    44  H    4.292026   3.219957   7.440565   1.918924  10.048873
                   26         27         28         29         30
    26  H    0.000000
    27  H    2.610600   0.000000
    28  H    3.753049   1.792193   0.000000
    29  H    3.062356   4.009074   4.053367   0.000000
    30  H    2.447687   4.137498   4.887223   1.790242   0.000000
    31  H    4.085556   2.442548   2.504134   3.696297   4.185618
    32  H    3.968001   3.065596   2.429396   2.497901   3.695412
    33  H    4.026828   2.567565   2.121077   5.364263   5.936809
    34  H    4.672036   4.177596   4.741251   3.785527   3.636507
    35  H    4.159026   4.711808   5.472159   3.138963   2.403128
    36  H    4.702278   4.724286   4.872395   2.663424   3.054596
    37  H    5.586323   6.385480   5.888793   6.076152   6.835480
    38  H    5.714300   4.131779   3.904310   7.410336   7.838771
    39  H    7.368485   5.869369   5.413124   8.949937   9.493369
    40  H    8.230381   7.239550   6.602155   9.623602  10.303266
    41  H    7.851317   6.093583   4.934379   8.568919   9.537735
    42  H    6.310593   4.437710   3.168315   6.901662   7.865473
    43  H    7.391134   5.251199   4.356341   8.338785   9.111865
    44  H   10.662952  10.524460   9.846325  11.748225  12.497193
                   31         32         33         34         35
    31  H    0.000000
    32  H    1.789752   0.000000
    33  H    4.442248   4.414606   0.000000
    34  H    2.401762   3.144280   6.543360   0.000000
    35  H    3.632810   3.779990   7.028873   1.777300   0.000000
    36  H    3.042096   2.656765   6.732407   1.786360   1.785756
    37  H    7.882139   6.788311   4.928791   9.299771   8.938958
    38  H    6.036773   6.320686   2.067931   8.198482   8.823582
    39  H    7.640240   7.816985   3.610251   9.879577  10.540854
    40  H    9.041866   8.831668   4.716935  11.243820  11.695655
    41  H    7.192040   7.068995   3.856272   9.572120  10.405257
    42  H    5.436811   5.322079   2.450892   7.807420   8.640309
    43  H    6.294954   6.603091   3.498016   8.669029   9.673784
    44  H   12.322534  11.634912   8.090155  14.305506  14.368766
                   36         37         38         39         40
    36  H    0.000000
    37  H    8.595681   0.000000
    38  H    8.625895   6.044243   0.000000
    39  H   10.243547   6.611504   1.763683   0.000000
    40  H   11.315124   5.817075   3.485168   2.193167   0.000000
    41  H    9.693741   6.627072   3.088643   2.498705   3.152269
    42  H    7.930778   6.010291   2.560723   3.084566   4.153657
    43  H    9.094517   7.489251   2.513838   2.521907   4.197512
    44  H   13.961968   6.079923   7.503095   6.513314   4.343229
                   41         42         43         44
    41  H    0.000000
    42  H    1.774580   0.000000
    43  H    1.779468   1.780381   0.000000
    44  H    6.913182   7.829839   8.352748   0.000000
 Stoichiometry    C17H20FN3O3
 Framework group  C1[X(C17H20FN3O3)]
 Deg. of freedom   126
 Full point group                 C1      NOp   1
 Largest Abelian subgroup         C1      NOp   1
 Largest concise Abelian subgroup C1      NOp   1
                         Standard orientation:                         
 ---------------------------------------------------------------------
 Center     Atomic      Atomic             Coordinates (Angstroms)
 Number     Number       Type             X           Y           Z
 ---------------------------------------------------------------------
      1          9           0        1.631611   -2.750098    0.337226
      2          8           0       -3.316374   -2.418670    0.318396
      3          8           0       -5.822163   -1.354509    0.161856
      4          8           0       -6.014788    0.889000   -0.207212
      5          7           0        2.661449   -0.163413   -0.093141
      6          7           0        5.480267    0.337895   -0.230965
      7          7           0       -1.969896    1.450521   -0.325620
      8          6           0        3.563734   -1.073034   -0.854504
      9          6           0        3.180240    1.215113   -0.013019
     10          6           0        4.965113   -1.051036   -0.235168
     11          6           0        4.596802    1.196383    0.586761
     12          6           0        1.287072   -0.394134   -0.074252
     13          6           0       -1.032156    0.411889   -0.164025
     14          6           0        0.351657    0.639488   -0.234956
     15          6           0        6.888499    0.411012    0.209530
     16          6           0        0.759912   -1.693849    0.152764
     17          6           0       -1.513218   -0.892514    0.048449
     18          6           0       -0.586008   -1.930328    0.197784
     19          6           0       -1.546728    2.866996   -0.498060
     20          6           0       -2.955888   -1.240984    0.123642
     21          6           0       -3.297229    1.162562   -0.266527
     22          6           0       -3.826406   -0.080638   -0.057803
     23          6           0       -1.155882    3.520351    0.840905
     24          6           0       -5.295374   -0.105823   -0.046909
     25          1           0        3.153832   -2.077157   -0.816173
     26          1           0        3.636028   -0.731380   -1.897207
     27          1           0        3.221487    1.687491   -1.007011
     28          1           0        2.530247    1.800786    0.642628
     29          1           0        4.914080   -1.474416    0.784678
     30          1           0        5.635982   -1.668382   -0.842037
     31          1           0        4.999096    2.215384    0.582792
     32          1           0        4.531504    0.843662    1.633005
     33          1           0        0.716893    1.631668   -0.444623
     34          1           0        7.231550    1.448484    0.139539
     35          1           0        7.501888   -0.203747   -0.456989
     36          1           0        7.040849    0.060558    1.247860
     37          1           0       -0.971870   -2.925833    0.374060
     38          1           0       -0.722769    2.900334   -1.215467
     39          1           0       -2.393611    3.395156   -0.943411
     40          1           0       -3.986307    1.988626   -0.400296
     41          1           0       -2.011322    3.517608    1.522839
     42          1           0       -0.334277    2.976089    1.314481
     43          1           0       -0.843692    4.556395    0.671918
     44          1           0       -6.815067   -1.260748    0.150455
 ---------------------------------------------------------------------
 Rotational constants (GHZ):      0.5545652      0.1096845      0.0934333
 Standard basis: LANL2DZ (5D, 7F)
 There are   256 symmetry adapted cartesian basis functions of A   symmetry.
 There are   256 symmetry adapted basis functions of A   symmetry.
   256 basis functions,   680 primitive gaussians,   256 cartesian basis functions
    88 alpha electrons       88 beta electrons
       nuclear repulsion energy      2066.1250919690 Hartrees.
 NAtoms=   44 NActive=   44 NUniq=   44 SFac= 1.00D+00 NAtFMM=   60 NAOKFM=F Big=F
 Integral buffers will be    131072 words long.
 Raffenetti 2 integral format.
 Two-electron integral symmetry is turned on.
 One-electron integrals computed using PRISM.
 PrsmSu:  requested number of processors reduced to:   8 ShMem   1 Linda.
   1 Symmetry operations used in ECPInt.
 ECPInt:  NShTT=   12880 NPrTT=   97752 LenC2=   11296 LenP2D=   47727.
 LDataN:  DoStor=T MaxTD1= 2 Len=   12
 Number of processors reduced to   8 by ecpmxn.
 NBasis=   256 RedAO= T EigKep=  2.03D-04  NBF=   256
 NBsUse=   256 1.00D-06 EigRej= -1.00D+00 NBFU=   256
 ExpMin= 1.15D-01 ExpMax= 1.00D+04 ExpMxC= 3.50D+02 IAcc=3 IRadAn=         5 AccDes= 0.00D+00
 Harris functional with IExCor= 1009 and IRadAn=       5 diagonalized for initial guess.
 HarFok:  IExCor= 1009 AccDes= 0.00D+00 IRadAn=         5 IDoV= 1 UseB2=F ITyADJ=14
 ICtDFT=  3500011 ScaDFX=  1.000000  1.000000  1.000000  1.000000
 FoFCou: FMM=F IPFlag=           0 FMFlag=      100000 FMFlg1=           0
         NFxFlg=           0 DoJE=T BraDBF=F KetDBF=T FulRan=T
         wScrn=  0.000000 ICntrl=     500 IOpCl=  0 I1Cent=   200000004 NGrid=           0
         NMat0=    1 NMatS0=      1 NMatT0=    0 NMatD0=    1 NMtDS0=    0 NMtDT0=    0
 Petite list used in FoFCou.
 Requested convergence on RMS density matrix=1.00D-08 within 128 cycles.
 Requested convergence on MAX density matrix=1.00D-06.
 Requested convergence on             energy=1.00D-06.
 No special actions if energy rises.
 Integral accuracy reduced to 1.0D-05 until final iterations.
 Initial convergence to 1.0D-05 achieved.  Increase integral accuracy.
 SCF Done:  E(RM06) =  -1148.74208430     A.U. after   17 cycles
            NFock= 17  Conv=0.97D-08     -V/T= 2.0049

 **********************************************************************

            Population analysis using the SCF density.

 **********************************************************************

 Orbital symmetries:
       Occupied  (A) (A) (A) (A) (A) (A) (A) (A) (A) (A) (A) (A)
                 (A) (A) (A) (A) (A) (A) (A) (A) (A) (A) (A) (A)
                 (A) (A) (A) (A) (A) (A) (A) (A) (A) (A) (A) (A)
                 (A) (A) (A) (A) (A) (A) (A) (A) (A) (A) (A) (A)
                 (A) (A) (A) (A) (A) (A) (A) (A) (A) (A) (A) (A)
                 (A) (A) (A) (A) (A) (A) (A) (A) (A) (A) (A) (A)
                 (A) (A) (A) (A) (A) (A) (A) (A) (A) (A) (A) (A)
                 (A) (A) (A) (A)
       Virtual   (A) (A) (A) (A) (A) (A) (A) (A) (A) (A) (A) (A)
                 (A) (A) (A) (A) (A) (A) (A) (A) (A) (A) (A) (A)
                 (A) (A) (A) (A) (A) (A) (A) (A) (A) (A) (A) (A)
                 (A) (A) (A) (A) (A) (A) (A) (A) (A) (A) (A) (A)
                 (A) (A) (A) (A) (A) (A) (A) (A) (A) (A) (A) (A)
                 (A) (A) (A) (A) (A) (A) (A) (A) (A) (A) (A) (A)
                 (A) (A) (A) (A) (A) (A) (A) (A) (A) (A) (A) (A)
                 (A) (A) (A) (A) (A) (A) (A) (A) (A) (A) (A) (A)
                 (A) (A) (A) (A) (A) (A) (A) (A) (A) (A) (A) (A)
                 (A) (A) (A) (A) (A) (A) (A) (A) (A) (A) (A) (A)
                 (A) (A) (A) (A) (A) (A) (A) (A) (A) (A) (A) (A)
                 (A) (A) (A) (A) (A) (A) (A) (A) (A) (A) (A) (A)
                 (A) (A) (A) (A) (A) (A) (A) (A) (A) (A) (A) (A)
                 (A) (A) (A) (A) (A) (A) (A) (A) (A) (A) (A) (A)
 The electronic state is 1-A.
 Alpha  occ. eigenvalues --  -24.80345 -19.25891 -19.21408 -19.18464 -14.48412
 Alpha  occ. eigenvalues --  -14.43235 -14.40200 -10.39920 -10.34987 -10.33847
 Alpha  occ. eigenvalues --  -10.33223 -10.33176 -10.33127 -10.32656 -10.29874
 Alpha  occ. eigenvalues --  -10.28712 -10.28673 -10.28092 -10.27597 -10.27273
 Alpha  occ. eigenvalues --  -10.27164 -10.27062 -10.27055 -10.26818  -1.25938
 Alpha  occ. eigenvalues --   -1.13136  -1.04490  -1.04218  -1.02739  -0.98505
 Alpha  occ. eigenvalues --   -0.93808  -0.88898  -0.84807  -0.80728  -0.79534
 Alpha  occ. eigenvalues --   -0.79287  -0.77964  -0.74317  -0.69949  -0.69185
 Alpha  occ. eigenvalues --   -0.68309  -0.66819  -0.65365  -0.63306  -0.62159
 Alpha  occ. eigenvalues --   -0.59704  -0.57312  -0.56773  -0.55796  -0.53338
 Alpha  occ. eigenvalues --   -0.51999  -0.50229  -0.49655  -0.49421  -0.48984
 Alpha  occ. eigenvalues --   -0.48827  -0.48582  -0.48012  -0.47627  -0.46897
 Alpha  occ. eigenvalues --   -0.46520  -0.46058  -0.45713  -0.45490  -0.43802
 Alpha  occ. eigenvalues --   -0.43091  -0.42536  -0.42199  -0.41551  -0.40774
 Alpha  occ. eigenvalues --   -0.40154  -0.39795  -0.39511  -0.39179  -0.38134
 Alpha  occ. eigenvalues --   -0.38004  -0.37824  -0.37379  -0.36273  -0.35284
 Alpha  occ. eigenvalues --   -0.32564  -0.31246  -0.29029  -0.28855  -0.24364
 Alpha  occ. eigenvalues --   -0.24271  -0.23094  -0.22502
 Alpha virt. eigenvalues --   -0.05365  -0.04063   0.00180   0.03034   0.07778
 Alpha virt. eigenvalues --    0.08790   0.09556   0.10168   0.10406   0.10807
 Alpha virt. eigenvalues --    0.11721   0.12175   0.12623   0.13009   0.14126
 Alpha virt. eigenvalues --    0.14546   0.15033   0.15736   0.16426   0.16639
 Alpha virt. eigenvalues --    0.17077   0.17449   0.18189   0.18595   0.18811
 Alpha virt. eigenvalues --    0.19404   0.19950   0.20163   0.20507   0.20857
 Alpha virt. eigenvalues --    0.21500   0.21820   0.22274   0.22586   0.23008
 Alpha virt. eigenvalues --    0.23213   0.23861   0.24736   0.24952   0.25269
 Alpha virt. eigenvalues --    0.26168   0.26912   0.27258   0.27392   0.27856
 Alpha virt. eigenvalues --    0.28905   0.29084   0.29658   0.29872   0.30794
 Alpha virt. eigenvalues --    0.30890   0.31617   0.32852   0.33355   0.34007
 Alpha virt. eigenvalues --    0.34716   0.35653   0.35754   0.36464   0.36754
 Alpha virt. eigenvalues --    0.37024   0.37698   0.37947   0.38654   0.38838
 Alpha virt. eigenvalues --    0.39715   0.39859   0.40185   0.40650   0.41547
 Alpha virt. eigenvalues --    0.41850   0.42251   0.43108   0.43431   0.45173
 Alpha virt. eigenvalues --    0.45905   0.46230   0.47022   0.47348   0.48300
 Alpha virt. eigenvalues --    0.49897   0.50156   0.50639   0.51114   0.52721
 Alpha virt. eigenvalues --    0.53476   0.53894   0.55291   0.56189   0.56974
 Alpha virt. eigenvalues --    0.57918   0.58316   0.59743   0.61195   0.62455
 Alpha virt. eigenvalues --    0.64147   0.65090   0.66279   0.67709   0.69010
 Alpha virt. eigenvalues --    0.69875   0.70967   0.71607   0.73036   0.73639
 Alpha virt. eigenvalues --    0.75517   0.77237   0.78383   0.80699   0.83997
 Alpha virt. eigenvalues --    0.85440   0.86003   0.88479   0.88861   0.90390
 Alpha virt. eigenvalues --    0.91460   0.92302   0.93163   0.94230   0.95978
 Alpha virt. eigenvalues --    0.97931   0.98680   0.99814   1.02739   1.02792
 Alpha virt. eigenvalues --    1.04252   1.04698   1.05217   1.06025   1.06800
 Alpha virt. eigenvalues --    1.07190   1.08274   1.09435   1.10207   1.10899
 Alpha virt. eigenvalues --    1.11707   1.12095   1.14558   1.15318   1.16240
 Alpha virt. eigenvalues --    1.17035   1.18242   1.18955   1.19352   1.23642
 Alpha virt. eigenvalues --    1.25800   1.26403   1.28300   1.31717   1.34249
 Alpha virt. eigenvalues --    1.36156   1.36876   1.40272   1.42352   1.44872
 Alpha virt. eigenvalues --    1.49469   1.51761   1.53065   1.57531   1.64710
 Alpha virt. eigenvalues --    1.72368   1.76320   1.79133   1.85397   1.91025
 Alpha virt. eigenvalues --    1.98135   2.01344   2.22106
          Condensed to atoms (all electrons):
               1          2          3          4          5          6
     1  F    9.075061   0.000004   0.000000   0.000000   0.004478   0.000000
     2  O    0.000004   7.789868  -0.006390   0.000009   0.000000   0.000000
     3  O    0.000000  -0.006390   8.082099  -0.083846   0.000000   0.000000
     4  O    0.000000   0.000009  -0.083846   7.888626   0.000000   0.000000
     5  N    0.004478   0.000000   0.000000   0.000000   6.850961  -0.013317
     6  N    0.000000   0.000000   0.000000   0.000000  -0.013317   6.741808
     7  N    0.000000   0.000274   0.000006   0.000851  -0.000044   0.000000
     8  C   -0.008880   0.000000   0.000000   0.000000   0.271871  -0.056038
     9  C    0.000072   0.000000   0.000000   0.000000   0.299605  -0.054302
    10  C    0.000239   0.000000   0.000000   0.000000  -0.052540   0.293861
    11  C   -0.000022   0.000000   0.000000   0.000000  -0.068109   0.295921
    12  C   -0.045994   0.000061   0.000000   0.000000   0.206907  -0.001358
    13  C   -0.000829  -0.007958  -0.000353  -0.000462  -0.006504   0.000006
    14  C    0.000828  -0.000312  -0.000004  -0.000017  -0.079315   0.000324
    15  C    0.000001   0.000000   0.000000   0.000000  -0.000447   0.264961
    16  C    0.288694   0.001434   0.000001   0.000000   0.012219  -0.000125
    17  C   -0.001477  -0.128474  -0.000781  -0.000009   0.001882   0.000000
    18  C   -0.060187   0.023375   0.000151   0.000024   0.008217  -0.000002
    19  C   -0.000001   0.000004   0.000002   0.000231   0.000010   0.000000
    20  C   -0.000001   0.679174   0.002520  -0.003789   0.000070   0.000000
    21  C    0.000000   0.001698  -0.005511   0.004161  -0.000011   0.000000
    22  C   -0.000004  -0.072445  -0.031002  -0.061233  -0.000001   0.000000
    23  C    0.000000   0.000000   0.000000   0.000002  -0.000014   0.000000
    24  C    0.000000  -0.007862   0.250599   0.588595   0.000000   0.000000
    25  H    0.005952   0.000000   0.000000   0.000000  -0.033479   0.003151
    26  H    0.000283   0.000000   0.000000   0.000000  -0.065177   0.000250
    27  H   -0.000002   0.000000   0.000000   0.000000  -0.060523   0.001402
    28  H    0.000000   0.000000   0.000000   0.000000  -0.035135   0.003551
    29  H    0.000054   0.000000   0.000000   0.000000  -0.002140  -0.072648
    30  H    0.000000   0.000000   0.000000   0.000000   0.004055  -0.036110
    31  H    0.000000   0.000000   0.000000   0.000000   0.003896  -0.037875
    32  H    0.000000   0.000000   0.000000   0.000000   0.000382  -0.071663
    33  H   -0.000036   0.000001   0.000000   0.000000  -0.008979   0.000011
    34  H    0.000000   0.000000   0.000000   0.000000   0.000017  -0.036967
    35  H    0.000000   0.000000   0.000000   0.000000   0.000019  -0.036984
    36  H    0.000000   0.000000   0.000000   0.000000  -0.000071  -0.061969
    37  H    0.000699   0.012089   0.000000   0.000000  -0.000041   0.000000
    38  H    0.000000   0.000000   0.000000   0.000000  -0.000033   0.000000
    39  H    0.000000   0.000000   0.000000   0.000003   0.000000   0.000000
    40  H    0.000000  -0.000057   0.000358   0.013056   0.000000   0.000000
    41  H    0.000000   0.000000   0.000000   0.000001   0.000000   0.000000
    42  H    0.000000   0.000000   0.000000   0.000000   0.000005   0.000000
    43  H    0.000000   0.000000   0.000000   0.000000   0.000000   0.000000
    44  H    0.000000   0.000384   0.244901   0.003275   0.000000   0.000000
               7          8          9         10         11         12
     1  F    0.000000  -0.008880   0.000072   0.000239  -0.000022  -0.045994
     2  O    0.000274   0.000000   0.000000   0.000000   0.000000   0.000061
     3  O    0.000006   0.000000   0.000000   0.000000   0.000000   0.000000
     4  O    0.000851   0.000000   0.000000   0.000000   0.000000   0.000000
     5  N   -0.000044   0.271871   0.299605  -0.052540  -0.068109   0.206907
     6  N    0.000000  -0.056038  -0.054302   0.293861   0.295921  -0.001358
     7  N    6.672748  -0.000004   0.000005   0.000000   0.000000  -0.008551
     8  C   -0.000004   5.365562  -0.061345   0.246336   0.001229  -0.029880
     9  C    0.000005  -0.061345   5.340195   0.006284   0.231159  -0.072834
    10  C    0.000000   0.246336   0.006284   5.395140  -0.086597  -0.000501
    11  C    0.000000   0.001229   0.231159  -0.086597   5.438120   0.004715
    12  C   -0.008551  -0.029880  -0.072834  -0.000501   0.004715   5.279039
    13  C    0.218693   0.000668   0.000402  -0.000024  -0.000021  -0.071256
    14  C   -0.058090   0.005468   0.020643  -0.000268  -0.001202   0.417360
    15  C    0.000000   0.003603   0.004884  -0.073528  -0.078321   0.000018
    16  C    0.000955  -0.024340   0.002129  -0.002067  -0.000035   0.309669
    17  C   -0.012265  -0.000255  -0.000265   0.000008  -0.000034  -0.119505
    18  C    0.012458  -0.004380   0.000212  -0.000063   0.000009  -0.161119
    19  C    0.245176   0.000004  -0.000176   0.000000   0.000002   0.001618
    20  C   -0.008654   0.000007  -0.000030   0.000000   0.000000  -0.000345
    21  C    0.400446   0.000000   0.000027   0.000000   0.000000  -0.000167
    22  C   -0.059231  -0.000001  -0.000001   0.000000   0.000000   0.000012
    23  C   -0.064506   0.000000   0.000092   0.000000  -0.000006   0.001545
    24  C    0.008815   0.000000   0.000000   0.000000   0.000000  -0.000020
    25  H    0.000000   0.356193   0.006535  -0.019767  -0.000840  -0.002397
    26  H    0.000000   0.363840  -0.004678  -0.047137  -0.001534   0.003123
    27  H    0.000003  -0.002887   0.360407  -0.002025  -0.043811   0.002113
    28  H   -0.000007   0.007393   0.342131  -0.001221  -0.028820  -0.023183
    29  H    0.000000  -0.048611   0.001479   0.351332  -0.011626   0.000369
    30  H    0.000000  -0.016919  -0.001496   0.344045   0.009477   0.000039
    31  H    0.000000  -0.000967  -0.017880   0.008820   0.347220   0.000073
    32  H    0.000000   0.001066  -0.053909  -0.010248   0.350736   0.001066
    33  H   -0.003470   0.000215   0.009432  -0.000065   0.000458  -0.023057
    34  H    0.000000  -0.000356  -0.000245   0.004741  -0.000906  -0.000001
    35  H    0.000000  -0.000089  -0.000426  -0.001004   0.005060   0.000001
    36  H    0.000000   0.000258   0.000430  -0.003535  -0.003838   0.000003
    37  H   -0.000075  -0.000002   0.000000  -0.000001   0.000000  -0.001061
    38  H   -0.040048   0.000003   0.000112   0.000000  -0.000001   0.003518
    39  H   -0.040923   0.000000  -0.000001   0.000000   0.000000  -0.000074
    40  H   -0.037877   0.000000   0.000000   0.000000   0.000000  -0.000018
    41  H   -0.002985   0.000000   0.000001   0.000000   0.000000   0.000018
    42  H   -0.003196   0.000002  -0.000081   0.000000   0.000000   0.000020
    43  H    0.004379   0.000000   0.000003   0.000000   0.000000  -0.000032
    44  H    0.000001   0.000000   0.000000   0.000000   0.000000   0.000000
              13         14         15         16         17         18
     1  F   -0.000829   0.000828   0.000001   0.288694  -0.001477  -0.060187
     2  O   -0.007958  -0.000312   0.000000   0.001434  -0.128474   0.023375
     3  O   -0.000353  -0.000004   0.000000   0.000001  -0.000781   0.000151
     4  O   -0.000462  -0.000017   0.000000   0.000000  -0.000009   0.000024
     5  N   -0.006504  -0.079315  -0.000447   0.012219   0.001882   0.008217
     6  N    0.000006   0.000324   0.264961  -0.000125   0.000000  -0.000002
     7  N    0.218693  -0.058090   0.000000   0.000955  -0.012265   0.012458
     8  C    0.000668   0.005468   0.003603  -0.024340  -0.000255  -0.004380
     9  C    0.000402   0.020643   0.004884   0.002129  -0.000265   0.000212
    10  C   -0.000024  -0.000268  -0.073528  -0.002067   0.000008  -0.000063
    11  C   -0.000021  -0.001202  -0.078321  -0.000035  -0.000034   0.000009
    12  C   -0.071256   0.417360   0.000018   0.309669  -0.119505  -0.161119
    13  C    5.341858   0.413244   0.000000  -0.086219   0.176784  -0.147536
    14  C    0.413244   5.812083  -0.000021  -0.171411  -0.160496  -0.093211
    15  C    0.000000  -0.000021   5.377195   0.000020   0.000000   0.000000
    16  C   -0.086219  -0.171411   0.000020   5.165207  -0.073711   0.413887
    17  C    0.176784  -0.160496   0.000000  -0.073711   5.766127   0.454271
    18  C   -0.147536  -0.093211   0.000000   0.413887   0.454271   5.891665
    19  C   -0.056876   0.027850   0.000000  -0.000034   0.003867   0.000124
    20  C   -0.014170   0.002319   0.000000  -0.020411   0.088828  -0.046772
    21  C   -0.125428   0.005798   0.000000   0.000145   0.014324   0.004324
    22  C    0.020256  -0.005243   0.000000  -0.001603  -0.162056  -0.026348
    23  C   -0.015404   0.004195   0.000000   0.000093  -0.002105  -0.000083
    24  C   -0.000977  -0.000486   0.000000   0.000016  -0.024793   0.000485
    25  H    0.000053   0.000833  -0.000213  -0.005334   0.000050  -0.001286
    26  H   -0.000181  -0.001643   0.000383   0.006868  -0.000005   0.000495
    27  H   -0.000003  -0.000170   0.000224   0.000075   0.000004   0.000038
    28  H    0.004068   0.021389  -0.000248  -0.002895   0.000166  -0.000150
    29  H   -0.000002  -0.000018   0.001849   0.000592   0.000001   0.000031
    30  H    0.000000   0.000004  -0.006799   0.000063   0.000000   0.000002
    31  H   -0.000001  -0.000034  -0.005979   0.000012   0.000000   0.000000
    32  H    0.000013   0.000168   0.001569  -0.000120   0.000000  -0.000001
    33  H   -0.025877   0.301112   0.000001   0.001580  -0.003286   0.000609
    34  H    0.000000   0.000000   0.369839   0.000000   0.000000   0.000000
    35  H    0.000000   0.000000   0.371325   0.000000   0.000000   0.000000
    36  H    0.000000   0.000001   0.351915   0.000000   0.000000   0.000000
    37  H    0.002387   0.000660   0.000000  -0.044908  -0.012233   0.318773
    38  H   -0.019433   0.014931   0.000000   0.000117  -0.002668  -0.000123
    39  H    0.002317  -0.001260   0.000000  -0.000002   0.000619   0.000029
    40  H   -0.004931  -0.000189   0.000000   0.000004   0.000354   0.000081
    41  H   -0.000092   0.000030   0.000000   0.000000  -0.000133  -0.000002
    42  H    0.002969   0.004024   0.000000  -0.000017   0.000262   0.000030
    43  H    0.000578  -0.000642   0.000000  -0.000001   0.000023   0.000000
    44  H    0.000008   0.000000   0.000000   0.000000   0.000061  -0.000004
              19         20         21         22         23         24
     1  F   -0.000001  -0.000001   0.000000  -0.000004   0.000000   0.000000
     2  O    0.000004   0.679174   0.001698  -0.072445   0.000000  -0.007862
     3  O    0.000002   0.002520  -0.005511  -0.031002   0.000000   0.250599
     4  O    0.000231  -0.003789   0.004161  -0.061233   0.000002   0.588595
     5  N    0.000010   0.000070  -0.000011  -0.000001  -0.000014   0.000000
     6  N    0.000000   0.000000   0.000000   0.000000   0.000000   0.000000
     7  N    0.245176  -0.008654   0.400446  -0.059231  -0.064506   0.008815
     8  C    0.000004   0.000007   0.000000  -0.000001   0.000000   0.000000
     9  C   -0.000176  -0.000030   0.000027  -0.000001   0.000092   0.000000
    10  C    0.000000   0.000000   0.000000   0.000000   0.000000   0.000000
    11  C    0.000002   0.000000   0.000000   0.000000  -0.000006   0.000000
    12  C    0.001618  -0.000345  -0.000167   0.000012   0.001545  -0.000020
    13  C   -0.056876  -0.014170  -0.125428   0.020256  -0.015404  -0.000977
    14  C    0.027850   0.002319   0.005798  -0.005243   0.004195  -0.000486
    15  C    0.000000   0.000000   0.000000   0.000000   0.000000   0.000000
    16  C   -0.000034  -0.020411   0.000145  -0.001603   0.000093   0.000016
    17  C    0.003867   0.088828   0.014324  -0.162056  -0.002105  -0.024793
    18  C    0.000124  -0.046772   0.004324  -0.026348  -0.000083   0.000485
    19  C    5.258492   0.000943  -0.056073   0.004238   0.274475   0.000393
    20  C    0.000943   5.216347  -0.073896   0.043698   0.000046  -0.032478
    21  C   -0.056073  -0.073896   5.523928   0.313595  -0.005048  -0.028237
    22  C    0.004238   0.043698   0.313595   5.864420  -0.000575   0.083373
    23  C    0.274475   0.000046  -0.005048  -0.000575   5.406199   0.000004
    24  C    0.000393  -0.032478  -0.028237   0.083373   0.000004   4.994414
    25  H    0.000000   0.000001   0.000000   0.000000   0.000000   0.000000
    26  H    0.000000   0.000000   0.000000   0.000000   0.000000   0.000000
    27  H   -0.000012   0.000000   0.000000   0.000000   0.000015   0.000000
    28  H   -0.000111   0.000000   0.000003   0.000000   0.000153   0.000000
    29  H    0.000000   0.000000   0.000000   0.000000   0.000000   0.000000
    30  H    0.000000   0.000000   0.000000   0.000000   0.000000   0.000000
    31  H    0.000000   0.000000   0.000000   0.000000   0.000000   0.000000
    32  H    0.000000   0.000000   0.000000   0.000000   0.000000   0.000000
    33  H    0.011893  -0.000077   0.000878  -0.000018  -0.006044   0.000000
    34  H    0.000000   0.000000   0.000000   0.000000   0.000000   0.000000
    35  H    0.000000   0.000000   0.000000   0.000000   0.000000   0.000000
    36  H    0.000000   0.000000   0.000000   0.000000   0.000000   0.000000
    37  H    0.000004   0.005098  -0.000143   0.002831   0.000000  -0.000012
    38  H    0.367765  -0.000031   0.002166   0.000097  -0.043404   0.000004
    39  H    0.363802  -0.000073   0.004141   0.000231  -0.039331   0.000022
    40  H   -0.000864   0.003949   0.310057  -0.009658  -0.000326  -0.006219
    41  H   -0.035244   0.000010   0.003232   0.000068   0.376438   0.000010
    42  H   -0.037992   0.000008   0.000023  -0.000031   0.371673   0.000000
    43  H   -0.027567   0.000000  -0.000061   0.000000   0.366489   0.000000
    44  H    0.000000   0.001819  -0.000418   0.005109   0.000000  -0.028799
              25         26         27         28         29         30
     1  F    0.005952   0.000283  -0.000002   0.000000   0.000054   0.000000
     2  O    0.000000   0.000000   0.000000   0.000000   0.000000   0.000000
     3  O    0.000000   0.000000   0.000000   0.000000   0.000000   0.000000
     4  O    0.000000   0.000000   0.000000   0.000000   0.000000   0.000000
     5  N   -0.033479  -0.065177  -0.060523  -0.035135  -0.002140   0.004055
     6  N    0.003151   0.000250   0.001402   0.003551  -0.072648  -0.036110
     7  N    0.000000   0.000000   0.000003  -0.000007   0.000000   0.000000
     8  C    0.356193   0.363840  -0.002887   0.007393  -0.048611  -0.016919
     9  C    0.006535  -0.004678   0.360407   0.342131   0.001479  -0.001496
    10  C   -0.019767  -0.047137  -0.002025  -0.001221   0.351332   0.344045
    11  C   -0.000840  -0.001534  -0.043811  -0.028820  -0.011626   0.009477
    12  C   -0.002397   0.003123   0.002113  -0.023183   0.000369   0.000039
    13  C    0.000053  -0.000181  -0.000003   0.004068  -0.000002   0.000000
    14  C    0.000833  -0.001643  -0.000170   0.021389  -0.000018   0.000004
    15  C   -0.000213   0.000383   0.000224  -0.000248   0.001849  -0.006799
    16  C   -0.005334   0.006868   0.000075  -0.002895   0.000592   0.000063
    17  C    0.000050  -0.000005   0.000004   0.000166   0.000001   0.000000
    18  C   -0.001286   0.000495   0.000038  -0.000150   0.000031   0.000002
    19  C    0.000000   0.000000  -0.000012  -0.000111   0.000000   0.000000
    20  C    0.000001   0.000000   0.000000   0.000000   0.000000   0.000000
    21  C    0.000000   0.000000   0.000000   0.000003   0.000000   0.000000
    22  C    0.000000   0.000000   0.000000   0.000000   0.000000   0.000000
    23  C    0.000000   0.000000   0.000015   0.000153   0.000000   0.000000
    24  C    0.000000   0.000000   0.000000   0.000000   0.000000   0.000000
    25  H    0.464029  -0.026735  -0.000012  -0.000061   0.000117  -0.000469
    26  H   -0.026735   0.545128   0.006164   0.000011   0.004618  -0.002148
    27  H   -0.000012   0.006164   0.552847  -0.030968   0.000197   0.000087
    28  H   -0.000061   0.000011  -0.030968   0.539246   0.000158  -0.000007
    29  H    0.000117   0.004618   0.000197   0.000158   0.589685  -0.034353
    30  H   -0.000469  -0.002148   0.000087  -0.000007  -0.034353   0.527585
    31  H   -0.000006   0.000065  -0.002348  -0.000585  -0.000227  -0.000075
    32  H    0.000120   0.000255   0.004767   0.000212   0.012891  -0.000192
    33  H   -0.000019   0.000081  -0.000084   0.001813   0.000002   0.000000
    34  H    0.000001  -0.000004   0.000000  -0.000010  -0.000247   0.000231
    35  H   -0.000009   0.000004  -0.000002   0.000001  -0.000855   0.003628
    36  H    0.000014   0.000005   0.000007   0.000017   0.007590  -0.001208
    37  H    0.000008   0.000000   0.000000   0.000000   0.000000   0.000000
    38  H    0.000000   0.000000   0.000011   0.000010   0.000000   0.000000
    39  H    0.000000   0.000000   0.000000   0.000000   0.000000   0.000000
    40  H    0.000000   0.000000   0.000000   0.000000   0.000000   0.000000
    41  H    0.000000   0.000000   0.000000   0.000002   0.000000   0.000000
    42  H    0.000000   0.000000   0.000000   0.000218   0.000000   0.000000
    43  H    0.000000   0.000000   0.000000  -0.000001   0.000000   0.000000
    44  H    0.000000   0.000000   0.000000   0.000000   0.000000   0.000000
              31         32         33         34         35         36
     1  F    0.000000   0.000000  -0.000036   0.000000   0.000000   0.000000
     2  O    0.000000   0.000000   0.000001   0.000000   0.000000   0.000000
     3  O    0.000000   0.000000   0.000000   0.000000   0.000000   0.000000
     4  O    0.000000   0.000000   0.000000   0.000000   0.000000   0.000000
     5  N    0.003896   0.000382  -0.008979   0.000017   0.000019  -0.000071
     6  N   -0.037875  -0.071663   0.000011  -0.036967  -0.036984  -0.061969
     7  N    0.000000   0.000000  -0.003470   0.000000   0.000000   0.000000
     8  C   -0.000967   0.001066   0.000215  -0.000356  -0.000089   0.000258
     9  C   -0.017880  -0.053909   0.009432  -0.000245  -0.000426   0.000430
    10  C    0.008820  -0.010248  -0.000065   0.004741  -0.001004  -0.003535
    11  C    0.347220   0.350736   0.000458  -0.000906   0.005060  -0.003838
    12  C    0.000073   0.001066  -0.023057  -0.000001   0.000001   0.000003
    13  C   -0.000001   0.000013  -0.025877   0.000000   0.000000   0.000000
    14  C   -0.000034   0.000168   0.301112   0.000000   0.000000   0.000001
    15  C   -0.005979   0.001569   0.000001   0.369839   0.371325   0.351915
    16  C    0.000012  -0.000120   0.001580   0.000000   0.000000   0.000000
    17  C    0.000000   0.000000  -0.003286   0.000000   0.000000   0.000000
    18  C    0.000000  -0.000001   0.000609   0.000000   0.000000   0.000000
    19  C    0.000000   0.000000   0.011893   0.000000   0.000000   0.000000
    20  C    0.000000   0.000000  -0.000077   0.000000   0.000000   0.000000
    21  C    0.000000   0.000000   0.000878   0.000000   0.000000   0.000000
    22  C    0.000000   0.000000  -0.000018   0.000000   0.000000   0.000000
    23  C    0.000000   0.000000  -0.006044   0.000000   0.000000   0.000000
    24  C    0.000000   0.000000   0.000000   0.000000   0.000000   0.000000
    25  H   -0.000006   0.000120  -0.000019   0.000001  -0.000009   0.000014
    26  H    0.000065   0.000255   0.000081  -0.000004   0.000004   0.000005
    27  H   -0.002348   0.004767  -0.000084   0.000000  -0.000002   0.000007
    28  H   -0.000585   0.000212   0.001813  -0.000010   0.000001   0.000017
    29  H   -0.000227   0.012891   0.000002  -0.000247  -0.000855   0.007590
    30  H   -0.000075  -0.000192   0.000000   0.000231   0.003628  -0.001208
    31  H    0.529892  -0.036304   0.000017   0.003615   0.000219  -0.001308
    32  H   -0.036304   0.601281   0.000035  -0.000900  -0.000234   0.007961
    33  H    0.000017   0.000035   0.496071   0.000000   0.000000   0.000000
    34  H    0.003615  -0.000900   0.000000   0.491158  -0.014019  -0.033364
    35  H    0.000219  -0.000234   0.000000  -0.014019   0.485825  -0.032993
    36  H   -0.001308   0.007961   0.000000  -0.033364  -0.032993   0.579223
    37  H    0.000000   0.000000   0.000006   0.000000   0.000000   0.000000
    38  H    0.000000   0.000000   0.005078   0.000000   0.000000   0.000000
    39  H    0.000000   0.000000   0.000113   0.000000   0.000000   0.000000
    40  H    0.000000   0.000000   0.000006   0.000000   0.000000   0.000000
    41  H    0.000000   0.000000   0.000084   0.000000   0.000000   0.000000
    42  H    0.000000   0.000000  -0.000133   0.000000   0.000000   0.000000
    43  H    0.000000   0.000000   0.000122   0.000000   0.000000   0.000000
    44  H    0.000000   0.000000   0.000000   0.000000   0.000000   0.000000
              37         38         39         40         41         42
     1  F    0.000699   0.000000   0.000000   0.000000   0.000000   0.000000
     2  O    0.012089   0.000000   0.000000  -0.000057   0.000000   0.000000
     3  O    0.000000   0.000000   0.000000   0.000358   0.000000   0.000000
     4  O    0.000000   0.000000   0.000003   0.013056   0.000001   0.000000
     5  N   -0.000041  -0.000033   0.000000   0.000000   0.000000   0.000005
     6  N    0.000000   0.000000   0.000000   0.000000   0.000000   0.000000
     7  N   -0.000075  -0.040048  -0.040923  -0.037877  -0.002985  -0.003196
     8  C   -0.000002   0.000003   0.000000   0.000000   0.000000   0.000002
     9  C    0.000000   0.000112  -0.000001   0.000000   0.000001  -0.000081
    10  C   -0.000001   0.000000   0.000000   0.000000   0.000000   0.000000
    11  C    0.000000  -0.000001   0.000000   0.000000   0.000000   0.000000
    12  C   -0.001061   0.003518  -0.000074  -0.000018   0.000018   0.000020
[...]
    19  C    5.267306   0.000861  -0.057273   0.004269   0.271414   0.000363
    20  C    0.000861   5.230716  -0.075899   0.041848   0.000066  -0.032558
    21  C   -0.057273  -0.075899   5.518098   0.314679  -0.005425  -0.027230
    22  C    0.004269   0.041848   0.314679   5.861396  -0.000605   0.082212
    23  C    0.271414   0.000066  -0.005425  -0.000605   5.416831   0.000008
    24  C    0.000363  -0.032558  -0.027230   0.082212   0.000008   4.986356
    25  H    0.000000   0.000001   0.000000   0.000000   0.000000   0.000000
    26  H    0.000000   0.000000   0.000000   0.000000   0.000000   0.000000
    27  H   -0.000015   0.000000   0.000000   0.000000   0.000024   0.000000
    28  H   -0.000128   0.000000   0.000002   0.000000   0.000167   0.000000
    29  H    0.000000   0.000000   0.000000   0.000000   0.000000   0.000000
    30  H    0.000000   0.000000   0.000000   0.000000   0.000000   0.000000
    31  H    0.000000   0.000000   0.000000   0.000000   0.000000   0.000000
    32  H    0.000000   0.000000   0.000000   0.000000   0.000000   0.000000
    33  H    0.012597  -0.000073   0.000828  -0.000023  -0.006701   0.000000
    34  H    0.000000   0.000000   0.000000   0.000000   0.000000   0.000000
    35  H    0.000000   0.000000   0.000000   0.000000   0.000000   0.000000
    36  H    0.000000   0.000000   0.000000   0.000000   0.000000   0.000000
    37  H    0.000004   0.005165  -0.000128   0.002541   0.000000  -0.000012
    38  H    0.367597  -0.000028   0.002337   0.000083  -0.043707   0.000003
    39  H    0.362921  -0.000073   0.003700   0.000324  -0.039441   0.000018
    40  H   -0.000729   0.003820   0.310723  -0.009086  -0.000450  -0.005759
    41  H   -0.035622   0.000010   0.003555   0.000076   0.376667   0.000010
    42  H   -0.038502   0.000008  -0.000020  -0.000028   0.371468   0.000000
    43  H   -0.027269   0.000000  -0.000074  -0.000001   0.366399   0.000000
    44  H    0.000000   0.001453  -0.000321   0.005108   0.000000  -0.029077
              25         26         27         28         29         30
     1  F    0.004718   0.000270  -0.000002   0.000000   0.000078  -0.000001
     2  O    0.000000   0.000000   0.000000   0.000000   0.000000   0.000000
     3  O    0.000000   0.000000   0.000000   0.000000   0.000000   0.000000
     4  O    0.000000   0.000000   0.000000   0.000000   0.000000   0.000000
     5  N   -0.031853  -0.068563  -0.063007  -0.035148  -0.002872   0.004185
     6  N    0.003228  -0.000203   0.000870   0.003477  -0.077310  -0.035908
     7  N    0.000000   0.000000   0.000003  -0.000007   0.000000   0.000000
     8  C    0.356004   0.365870  -0.002742   0.007540  -0.048429  -0.016331
     9  C    0.006491  -0.004129   0.360678   0.343292   0.001831  -0.001525
    10  C   -0.019412  -0.048297  -0.001923  -0.001172   0.352313   0.344912
    11  C   -0.000782  -0.001521  -0.044671  -0.027817  -0.010714   0.009528
    12  C   -0.003894   0.004151   0.001629  -0.021787   0.000452   0.000037
    13  C    0.000052  -0.000171   0.000049   0.003756  -0.000002   0.000000
    14  C    0.000748  -0.001421   0.000094   0.020059   0.000001   0.000003
    15  C   -0.000220   0.000418   0.000245  -0.000246   0.002433  -0.007297
    16  C   -0.003579   0.005878  -0.000083  -0.002807   0.000509   0.000072
    17  C    0.000044  -0.000008   0.000007   0.000152   0.000001   0.000000
    18  C   -0.001104   0.000395   0.000033  -0.000139   0.000026   0.000002
    19  C    0.000000   0.000000  -0.000015  -0.000128   0.000000   0.000000
    20  C    0.000001   0.000000   0.000000   0.000000   0.000000   0.000000
    21  C    0.000000   0.000000   0.000000   0.000002   0.000000   0.000000
    22  C    0.000000   0.000000   0.000000   0.000000   0.000000   0.000000
    23  C    0.000000   0.000000   0.000024   0.000167   0.000000   0.000000
    24  C    0.000000   0.000000   0.000000   0.000000   0.000000   0.000000
    25  H    0.469759  -0.028015  -0.000013  -0.000062   0.000048  -0.000594
    26  H   -0.028015   0.549945   0.006408   0.000021   0.004740  -0.002193
    27  H   -0.000013   0.006408   0.559636  -0.031358   0.000198   0.000087
    28  H   -0.000062   0.000021  -0.031358   0.535675   0.000158  -0.000007
    29  H    0.000048   0.004740   0.000198   0.000158   0.594342  -0.035004
    30  H   -0.000594  -0.002193   0.000087  -0.000007  -0.035004   0.526734
    31  H   -0.000006   0.000063  -0.002456  -0.000720  -0.000253  -0.000072
    32  H    0.000114   0.000266   0.004886   0.000203   0.012933  -0.000216
    33  H   -0.000018   0.000092   0.000113   0.000989   0.000002   0.000000
    34  H    0.000001  -0.000003   0.000000  -0.000011  -0.000258   0.000235
    35  H   -0.000009   0.000003  -0.000001   0.000001  -0.000992   0.003777
    36  H    0.000016   0.000006   0.000008   0.000019   0.008686  -0.001301
    37  H    0.000008   0.000000   0.000000   0.000000   0.000000   0.000000
    38  H    0.000000   0.000000   0.000014   0.000013   0.000000   0.000000
    39  H    0.000000   0.000000   0.000000   0.000000   0.000000   0.000000
    40  H    0.000000   0.000000   0.000000   0.000000   0.000000   0.000000
    41  H    0.000000   0.000000   0.000000   0.000002   0.000000   0.000000
    42  H    0.000000   0.000000   0.000001   0.000237   0.000000   0.000000
    43  H    0.000000   0.000000   0.000000  -0.000001   0.000000   0.000000
    44  H    0.000000   0.000000   0.000000   0.000000   0.000000   0.000000
              31         32         33         34         35         36
     1  F    0.000000   0.000000  -0.000034   0.000000   0.000000   0.000000
     2  O    0.000000   0.000000   0.000001   0.000000   0.000000   0.000000
     3  O    0.000000   0.000000   0.000000   0.000000   0.000000   0.000000
     4  O    0.000000   0.000000   0.000000   0.000000   0.000000   0.000000
     5  N    0.004025  -0.000283  -0.009084   0.000019   0.000022  -0.000091
     6  N   -0.037703  -0.077614   0.000010  -0.036052  -0.036078  -0.066881
     7  N    0.000000   0.000000  -0.003814   0.000000   0.000000   0.000000
     8  C   -0.001009   0.001248   0.000185  -0.000377  -0.000038   0.000303
     9  C   -0.017085  -0.054365   0.009270  -0.000188  -0.000457   0.000482
    10  C    0.008803  -0.008962  -0.000065   0.004811  -0.001093  -0.003684
    11  C    0.348527   0.352199   0.000516  -0.000914   0.005126  -0.003955
    12  C    0.000071   0.001101  -0.024262  -0.000001   0.000001   0.000004
    13  C   -0.000001   0.000014  -0.026271   0.000000   0.000000   0.000000
    14  C   -0.000036   0.000234   0.300909   0.000000   0.000000   0.000001
    15  C   -0.006537   0.002255   0.000001   0.369016   0.370508   0.354085
    16  C    0.000012  -0.000172   0.001486   0.000000   0.000000  -0.000001
    17  C    0.000000   0.000000  -0.003117   0.000000   0.000000   0.000000
    18  C    0.000000  -0.000003   0.000589   0.000000   0.000000   0.000000
    19  C    0.000000   0.000000   0.012597   0.000000   0.000000   0.000000
    20  C    0.000000   0.000000  -0.000073   0.000000   0.000000   0.000000
    21  C    0.000000   0.000000   0.000828   0.000000   0.000000   0.000000
    22  C    0.000000   0.000000  -0.000023   0.000000   0.000000   0.000000
    23  C    0.000000   0.000000  -0.006701   0.000000   0.000000   0.000000
    24  C    0.000000   0.000000   0.000000   0.000000   0.000000   0.000000
    25  H   -0.000006   0.000114  -0.000018   0.000001  -0.000009   0.000016
    26  H    0.000063   0.000266   0.000092  -0.000003   0.000003   0.000006
    27  H   -0.002456   0.004886   0.000113   0.000000  -0.000001   0.000008
    28  H   -0.000720   0.000203   0.000989  -0.000011   0.000001   0.000019
    29  H   -0.000253   0.012933   0.000002  -0.000258  -0.000992   0.008686
    30  H   -0.000072  -0.000216   0.000000   0.000235   0.003777  -0.001301
    31  H    0.528385  -0.037378   0.000015   0.003768   0.000221  -0.001410
    32  H   -0.037378   0.609144   0.000035  -0.001064  -0.000248   0.009250
    33  H    0.000015   0.000035   0.496673   0.000000   0.000000   0.000000
    34  H    0.003768  -0.001064   0.000000   0.492019  -0.014152  -0.033705
    35  H    0.000221  -0.000248   0.000000  -0.014152   0.486783  -0.033372
    36  H   -0.001410   0.009250   0.000000  -0.033705  -0.033372   0.584304
    37  H    0.000000   0.000000   0.000006   0.000000   0.000000   0.000000
    38  H    0.000000   0.000000   0.005615   0.000000   0.000000   0.000000
    39  H    0.000000   0.000000   0.000135   0.000000   0.000000   0.000000
    40  H    0.000000   0.000000   0.000005   0.000000   0.000000   0.000000
    41  H    0.000000   0.000000   0.000096   0.000000   0.000000   0.000000
    42  H    0.000000   0.000000  -0.000074   0.000000   0.000000   0.000000
    43  H    0.000000   0.000000   0.000136   0.000000   0.000000   0.000000
    44  H    0.000000   0.000000   0.000000   0.000000   0.000000   0.000000
              37         38         39         40         41         42
     1  F    0.000398   0.000000   0.000000   0.000000   0.000000   0.000000
     2  O    0.010599   0.000000   0.000000  -0.000055   0.000000   0.000000
     3  O    0.000000   0.000000   0.000000   0.000338   0.000000   0.000000
     4  O    0.000000   0.000000   0.000003   0.012436   0.000001   0.000000
     5  N   -0.000041  -0.000034   0.000000   0.000000   0.000000   0.000007
     6  N    0.000000   0.000000   0.000000   0.000000   0.000000   0.000000
     7  N   -0.000071  -0.040210  -0.040609  -0.038629  -0.003334  -0.003212
     8  C   -0.000001   0.000003   0.000000   0.000000   0.000000   0.000002
     9  C    0.000000   0.000085   0.000000   0.000000   0.000001  -0.000084
    10  C   -0.000001   0.000000   0.000000   0.000000   0.000000   0.000000
    11  C    0.000000  -0.000001   0.000000   0.000000   0.000000   0.000000
    12  C   -0.000532   0.003579  -0.000079  -0.000018   0.000017   0.000060
    13  C    0.001460  -0.019299   0.002273  -0.004965  -0.000047   0.002800
    14  C    0.000680   0.014117  -0.001180  -0.000187  -0.000030   0.004871
    15  C    0.000000   0.000000   0.000000   0.000000   0.000000   0.000000
    16  C   -0.041452   0.000125  -0.000003   0.000004   0.000000  -0.000015
    17  C   -0.014682  -0.002527   0.000588   0.000484  -0.000127   0.000241
    18  C    0.320239  -0.000115   0.000027   0.000083  -0.000002   0.000031
    19  C    0.000004   0.367597   0.362921  -0.000729  -0.035622  -0.038502
    20  C    0.005165  -0.000028  -0.000073   0.003820   0.000010   0.000008
    21  C   -0.000128   0.002337   0.003700   0.310723   0.003555  -0.000020
    22  C    0.002541   0.000083   0.000324  -0.009086   0.000076  -0.000028
    23  C    0.000000  -0.043707  -0.039441  -0.000450   0.376667   0.371468
    24  C   -0.000012   0.000003   0.000018  -0.005759   0.000010   0.000000
    25  H    0.000008   0.000000   0.000000   0.000000   0.000000   0.000000
    26  H    0.000000   0.000000   0.000000   0.000000   0.000000   0.000000
    27  H    0.000000   0.000014   0.000000   0.000000   0.000000   0.000001
    28  H    0.000000   0.000013   0.000000   0.000000   0.000002   0.000237
    29  H    0.000000   0.000000   0.000000   0.000000   0.000000   0.000000
    30  H    0.000000   0.000000   0.000000   0.000000   0.000000   0.000000
    31  H    0.000000   0.000000   0.000000   0.000000   0.000000   0.000000
    32  H    0.000000   0.000000   0.000000   0.000000   0.000000   0.000000
    33  H    0.000006   0.005615   0.000135   0.000005   0.000096  -0.000074
    34  H    0.000000   0.000000   0.000000   0.000000   0.000000   0.000000
    35  H    0.000000   0.000000   0.000000   0.000000   0.000000   0.000000
    36  H    0.000000   0.000000   0.000000   0.000000   0.000000   0.000000
    37  H    0.417773   0.000000   0.000000   0.000000   0.000000   0.000000
    38  H    0.000000   0.516813  -0.028957   0.000206   0.003151  -0.003755
    39  H    0.000000  -0.028957   0.510602   0.003488  -0.004069   0.003123
    40  H    0.000000   0.000206   0.003488   0.454507  -0.000081   0.000009
    41  H    0.000000   0.003151  -0.004069  -0.000081   0.469062  -0.020504
    42  H    0.000000  -0.003755   0.003123   0.000009  -0.020504   0.476658
    43  H    0.000000  -0.001023  -0.000914   0.000002  -0.019127  -0.019935
    44  H    0.000000   0.000000   0.000000   0.000000   0.000000   0.000000
              43         44
     1  F    0.000000   0.000000
     2  O    0.000000   0.000310
     3  O    0.000000   0.249225
     4  O    0.000000   0.003089
     5  N    0.000000   0.000000
     6  N    0.000000   0.000000
     7  N    0.004530   0.000001
     8  C    0.000000   0.000000
     9  C    0.000004   0.000000
    10  C    0.000000   0.000000
    11  C    0.000000   0.000000
    12  C   -0.000039   0.000000
    13  C    0.000663   0.000007
    14  C   -0.000755   0.000000
    15  C    0.000000   0.000000
    16  C   -0.000001   0.000000
    17  C    0.000026   0.000046
    18  C    0.000000  -0.000004
    19  C   -0.027269   0.000000
    20  C    0.000000   0.001453
    21  C   -0.000074  -0.000321
    22  C   -0.000001   0.005108
    23  C    0.366399   0.000000
    24  C    0.000000  -0.029077
    25  H    0.000000   0.000000
    26  H    0.000000   0.000000
    27  H    0.000000   0.000000
    28  H   -0.000001   0.000000
    29  H    0.000000   0.000000
    30  H    0.000000   0.000000
    31  H    0.000000   0.000000
    32  H    0.000000   0.000000
    33  H    0.000136   0.000000
    34  H    0.000000   0.000000
    35  H    0.000000   0.000000
    36  H    0.000000   0.000000
    37  H    0.000000   0.000000
    38  H   -0.001023   0.000000
    39  H   -0.000914   0.000000
    40  H    0.000002   0.000000
    41  H   -0.019127   0.000000
    42  H   -0.019935   0.000000
    43  H    0.474454   0.000000
    44  H    0.000000   0.363748
 Mulliken charges:
               1
     1  F   -0.262138
     2  O   -0.289707
     3  O   -0.451849
     4  O   -0.358287
     5  N   -0.226986
     6  N   -0.111214
     7  N   -0.220178
     8  C   -0.371273
     9  C   -0.364327
    10  C   -0.347554
    11  C   -0.356583
    12  C    0.320549
    13  C    0.398238
    14  C   -0.467939
    15  C   -0.584193
    16  C    0.234225
    17  C    0.197032
    18  C   -0.582549
    19  C   -0.352523
    20  C    0.151257
    21  C   -0.289594
    22  C    0.094343
    23  C   -0.628516
    24  C    0.203831
    25  H    0.248330
    26  H    0.215998
    27  H    0.211290
    28  H    0.205649
    29  H    0.197082
    30  H    0.210877
    31  H    0.210777
    32  H    0.186422
    33  H    0.243233
    34  H    0.216855
    35  H    0.219998
    36  H    0.187237
    37  H    0.298048
    38  H    0.225914
    39  H    0.228123
    40  H    0.273854
    41  H    0.230295
    42  H    0.226614
    43  H    0.222925
    44  H    0.406413
 Sum of Mulliken charges =   0.00000
 Mulliken charges with hydrogens summed into heavy atoms:
               1
     1  F   -0.262138
     2  O   -0.289707
     3  O   -0.045436
     4  O   -0.358287
     5  N   -0.226986
     6  N   -0.111214
     7  N   -0.220178
     8  C    0.093054
     9  C    0.052612
    10  C    0.060405
    11  C    0.040616
    12  C    0.320549
    13  C    0.398238
    14  C   -0.224706
    15  C    0.039897
    16  C    0.234225
    17  C    0.197032
    18  C   -0.284501
    19  C    0.101514
    20  C    0.151257
    21  C   -0.015740
    22  C    0.094343
    23  C    0.051318
    24  C    0.203831
 Electronic spatial extent (au):  <R**2>=          10942.8480
 Charge=              0.0000 electrons
 Dipole moment (field-independent basis, Debye):
    X=              6.3230    Y=              6.7187    Z=             -0.6015  Tot=              9.2457
 Quadrupole moment (field-independent basis, Debye-Ang):
   XX=           -144.7296   YY=           -139.6302   ZZ=           -140.8004
   XY=             -5.9949   XZ=              2.5034   YZ=              3.3427
 Traceless Quadrupole moment (field-independent basis, Debye-Ang):
   XX=             -3.0095   YY=              2.0898   ZZ=              0.9197
   XY=             -5.9949   XZ=              2.5034   YZ=              3.3427
 Octapole moment (field-independent basis, Debye-Ang**2):
  XXX=            147.9249  YYY=             63.2349  ZZZ=              3.6941  XYY=             32.8489
  XXY=            -37.9277  XXZ=             26.9806  XZZ=             -6.6768  YZZ=             -4.3703
  YYZ=             -9.5145  XYZ=              9.9292
 Hexadecapole moment (field-independent basis, Debye-Ang**3):
 XXXX=         -10736.6196 YYYY=          -2188.8193 ZZZZ=           -316.0435 XXXY=            419.5384
 XXXZ=              9.2853 YYYX=           -121.1501 YYYZ=             -3.6668 ZZZX=             -3.5027
 ZZZY=             -9.8814 XXYY=          -2407.7101 XXZZ=          -1994.5094 YYZZ=           -421.0997
 XXYZ=             83.6747 YYXZ=             10.7624 ZZXY=            -18.0813
 N-N= 2.065831698744D+03 E-N=-6.813903171994D+03  KE= 1.143060884547D+03
 1\1\GINC-NODE043\FOpt\RM06\LANL2DZ\C17H20F1N3O3\SUPERCOMPUTO1\21-Jul-2
 020\0\\#opt M06/lanl2dz integral=ultrafine geom=connectivity\\Title Ca
 rd Required\\0,1\F,-1.6524543191,-2.7345360516,-0.3818278416\O,3.32730
 22048,-2.426938308,-0.3300765859\O,5.8684777414,-1.3200612856,-0.24242
 50043\O,6.0240978265,0.9131001892,0.1478566481\N,-2.6687959597,-0.1523
 590158,0.1319113112\N,-5.4763040939,0.3508022847,0.1990967248\N,1.9670
 769806,1.4362516334,0.3545420225\C,-3.5760243391,-1.0255967588,0.90370
 35879\C,-3.1775812313,1.2144089048,-0.0097236944\C,-4.9648148458,-1.02
 35649909,0.280362858\C,-4.5828839458,1.1858502231,-0.6081440707\C,-1.2
 98657383,-0.3903840257,0.1078630108\C,1.0299051669,0.3948379604,0.1890
 419658\C,-0.3536288338,0.6404787812,0.2688868817\C,-6.8592591787,0.403
 1942254,-0.2736091372\C,-0.7680166192,-1.6867948943,-0.136407443\C,1.5
 149457306,-0.9122790014,-0.0360910453\C,0.5785490292,-1.9499681929,-0.
 1962392953\C,1.5359040114,2.8368083663,0.5400581682\C,2.9592437615,-1.
 2455866592,-0.129007533\C,3.295877175,1.1640989088,0.2661798563\C,3.83
 87901961,-0.0831093423,0.0375944454\C,1.1283173455,3.4894227833,-0.782
 3195526\C,5.3101636585,-0.0988100734,-0.0084028421\H,-3.1788845434,-2.
 0401171519,0.9338102932\H,-3.652017244,-0.641963037,1.935648575\H,-3.2
 120418729,1.7294845909,0.9678110985\H,-2.5202679611,1.7775579361,-0.68
 2655851\H,-4.9128888896,-1.4944466488,-0.7247686237\H,-5.6447049717,-1
 .6171992747,0.9028569827\H,-4.9826114234,2.2070091732,-0.6401633296\H,
 -4.5172265236,0.8080621387,-1.6521759221\H,-0.7161334656,1.638005056,0
 .4890983342\H,-7.2191259412,1.4380081576,-0.2592883364\H,-7.499962223,
 -0.1892563349,0.3885182333\H,-6.9712817453,0.0109083565,-1.3058323197\
 H,0.9476096218,-2.9519356805,-0.3975698474\H,0.7214608342,2.8650646169
 ,1.2717483915\H,2.3753784749,3.3794350249,0.9859814461\H,3.9774304277,
 2.0036670442,0.3888784151\H,1.9725674621,3.4931479536,-1.4800141634\H,
 0.3011963262,2.9498781912,-1.2571146835\H,0.8149954267,4.5250006079,-0
 .6161686556\H,6.8475111527,-1.2368183808,-0.2576164725\\Version=ES64L-
 G09RevD.01\State=1-A\HF=-1148.7447677\RMSD=4.638e-09\RMSF=4.725e-06\Di
 pole=-2.4851337,2.6429719,0.2655845\Quadrupole=-2.222654,1.5913768,0.6
 312772,4.4377672,1.9052547,-2.4880756\PG=C01 [X(C17H20F1N3O3)]\\@


 ACTORS ARE SO FORTUNATE.  THEY CAN CHOOSE WHETHER
 THEY WILL APPEAR IN A TRAGEDY OR IN COMEDY,
 WHETHER THEY WILL SUFFER OF MAKE MERRY,
 LAUGH OR SHED TEARS.  BUT IN REAL LIFE IT IS DIFFERENT.
 MOST MEN AND WOMEN ARE FORCED TO PERFORM
 PARTS FOR WHICH THEY HAVE NO QUALIFICATIONS.
 THE WORLD IS A STAGE, BUT THE PLAY IS BADLY CAST.

                                   -- OSCAR WILDE
 Job cpu time:       0 days  3 hours 18 minutes 12.4 seconds.
 File lengths (MBytes):  RWF=     44 Int=      0 D2E=      0 Chk=      7 Scr=      1
 Normal termination of Gaussian 09 at Tue Jul 21 14:10:38 2020.
