 Entering Gaussian System, Link 0=g09
 Input=acpipemidico.gjf
 Output=acpipemidico.log
 Initial command:
 /usr/local/cluster_programs/g09/l1.exe "/tmp/scratch/64193.prometeo/Gau-2200.inp" -scrdir="/tmp/scratch/64193.prometeo/"
 Entering Link 1 = /usr/local/cluster_programs/g09/l1.exe PID=      2201.
  
 Copyright (c) 1988,1990,1992,1993,1995,1998,2003,2009,2013,
            Gaussian, Inc.  All Rights Reserved.
  
 This is part of the Gaussian(R) 09 program.  It is based on
 the Gaussian(R) 03 system (copyright 2003, Gaussian, Inc.),
 the Gaussian(R) 98 system (copyright 1998, Gaussian, Inc.),
 the Gaussian(R) 94 system (copyright 1995, Gaussian, Inc.),
 the Gaussian 92(TM) system (copyright 1992, Gaussian, Inc.),
 the Gaussian 90(TM) system (copyright 1990, Gaussian, Inc.),
 the Gaussian 88(TM) system (copyright 1988, Gaussian, Inc.),
 the Gaussian 86(TM) system (copyright 1986, Carnegie Mellon
 University), and the Gaussian 82(TM) system (copyright 1983,
 Carnegie Mellon University). Gaussian is a federally registered
 trademark of Gaussian, Inc.
  
 This software contains proprietary and confidential information,
 including trade secrets, belonging to Gaussian, Inc.
  
 This software is provided under written license and may be
 used, copied, transmitted, or stored only in accord with that
 written license.
  
 The following legend is applicable only to US Government
 contracts under FAR:
  
                    RESTRICTED RIGHTS LEGEND
  
 Use, reproduction and disclosure by the US Government is
 subject to restrictions as set forth in subparagraphs (a)
 and (c) of the Commercial Computer Software - Restricted
 Rights clause in FAR 52.227-19.
  
 Gaussian, Inc.
 340 Quinnipiac St., Bldg. 40, Wallingford CT 06492
  
  
 ---------------------------------------------------------------
 Warning -- This program may not be used in any manner that
 competes with the business of Gaussian, Inc. or will provide
 assistance to any competitor of Gaussian, Inc.  The licensee
 of this program is prohibited from giving any competitor of
 Gaussian, Inc. access to this program.  By using this program,
 the user acknowledges that Gaussian, Inc. is engaged in the
 business of creating and licensing software in the field of
 computational chemistry and represents and warrants to the
 licensee that it is not a competitor of Gaussian, Inc. and that
 it will not use this program in any manner prohibited above.
 ---------------------------------------------------------------
  

 Cite this work as:
 Gaussian 09, Revision D.01,
 M. J. Frisch, G. W. Trucks, H. B. Schlegel, G. E. Scuseria, 
 M. A. Robb, J. R. Cheeseman, G. Scalmani, V. Barone, B. Mennucci, 
 G. A. Petersson, H. Nakatsuji, M. Caricato, X. Li, H. P. Hratchian, 
 A. F. Izmaylov, J. Bloino, G. Zheng, J. L. Sonnenberg, M. Hada, 
 M. Ehara, K. Toyota, R. Fukuda, J. Hasegawa, M. Ishida, T. Nakajima, 
 Y. Honda, O. Kitao, H. Nakai, T. Vreven, J. A. Montgomery, Jr., 
 J. E. Peralta, F. Ogliaro, M. Bearpark, J. J. Heyd, E. Brothers, 
 K. N. Kudin, V. N. Staroverov, T. Keith, R. Kobayashi, J. Normand, 
 K. Raghavachari, A. Rendell, J. C. Burant, S. S. Iyengar, J. Tomasi, 
 M. Cossi, N. Rega, J. M. Millam, M. Klene, J. E. Knox, J. B. Cross, 
 V. Bakken, C. Adamo, J. Jaramillo, R. Gomperts, R. E. Stratmann, 
 O. Yazyev, A. J. Austin, R. Cammi, C. Pomelli, J. W. Ochterski, 
 R. L. Martin, K. Morokuma, V. G. Zakrzewski, G. A. Voth, 
 P. Salvador, J. J. Dannenberg, S. Dapprich, A. D. Daniels, 
 O. Farkas, J. B. Foresman, J. V. Ortiz, J. Cioslowski, 
 and D. J. Fox, Gaussian, Inc., Wallingford CT, 2013.
 
 ******************************************
 Gaussian 09:  ES64L-G09RevD.01 24-Apr-2013
                21-Jul-2020 
 ******************************************
 %nprocshared=20
 Will use up to   20 processors via shared memory.
 -----------------------------------------------------
 #opt M06/lanl2dz integral=ultrafine geom=connectivity
 -----------------------------------------------------
 1/14=-1,18=20,19=15,26=4,38=1,57=2/1,3;
 2/9=110,12=2,17=6,18=5,40=1/2;
 3/5=6,6=3,11=2,16=1,25=1,30=1,71=1,74=-54,75=-5/1,2,3;
 4//1;
 5/5=2,38=5/2;
 6/7=2,8=2,9=2,10=2,28=1/1;
 7//1,2,3,16;
 1/14=-1,18=20,19=15,26=4/3(2);
 2/9=110/2;
 99//99;
 2/9=110/2;
 3/5=6,6=3,11=2,16=1,25=1,30=1,71=1,74=-54,75=-5/1,2,3;
 4/5=5,16=3,69=1/1;
 5/5=2,38=5/2;
 7//1,2,3,16;
 1/14=-1,18=20,19=15,26=4/3(-5);
 2/9=110/2;
 6/7=2,8=2,9=2,10=2,19=2,28=1/1;
 99/9=1/99;
 -------------------
 Title Card Required
 -------------------
 Symbolic Z-matrix:
 Charge =  0 Multiplicity = 1
 O(PDBName=O1,ResName=MOL,ResNum=1) 0    -2.87597  -2.48217   0.27312  L 
 O(PDBName=O2,ResName=MOL,ResNum=1) 0    -5.32326  -1.27631   0.32121  L 
 O(PDBName=O3,ResName=MOL,ResNum=1) 0    -5.4183    0.9884    0.05743  L 
 N(PDBName=N4,ResName=MOL,ResNum=1) 0     2.97986  -0.37908  -0.50418  L 
 N(PDBName=N5,ResName=MOL,ResNum=1) 0     5.56401   0.15139   0.46349  L 
 N(PDBName=N6,ResName=MOL,ResNum=1) 0    -1.36073   1.33678  -0.3321   L 
 N(PDBName=N7,ResName=MOL,ResNum=1) 0     0.81831   0.48777  -0.40987  L 
 N(PDBName=N8,ResName=MOL,ResNum=1) 0     1.22997  -1.8824   -0.16093  L 
 C(PDBName=C9,ResName=MOL,ResNum=1) 0     3.56088   0.96605  -0.67637  L 
 C(PDBName=C10,ResName=MOL,ResNum=1) 0     3.9637   -1.47871  -0.41599  L 
 C(PDBName=C11,ResName=MOL,ResNum=1) 0     4.55045   1.23205   0.47311  L 
 C(PDBName=C12,ResName=MOL,ResNum=1) 0     4.94994  -1.17282   0.7257   L 
 C(PDBName=C13,ResName=MOL,ResNum=1) 0     1.64929  -0.58588  -0.35553  L 
 C(PDBName=C14,ResName=MOL,ResNum=1) 0    -0.49211   0.24905  -0.27076  L 
 C(PDBName=C15,ResName=MOL,ResNum=1) 0    -1.02521  -1.03455  -0.06898  L 
 C(PDBName=C16,ResName=MOL,ResNum=1) 0    -0.82029   2.71446  -0.50895  L 
 C(PDBName=C17,ResName=MOL,ResNum=1) 0    -0.08077  -2.06943  -0.02449  L 
 C(PDBName=C18,ResName=MOL,ResNum=1) 0    -2.69941   1.11934  -0.18713  L 
 C(PDBName=C19,ResName=MOL,ResNum=1) 0    -2.46331  -1.32046   0.09231  L 
 C(PDBName=C20,ResName=MOL,ResNum=1) 0    -3.28077  -0.10062   0.01198  L 
 C(PDBName=C21,ResName=MOL,ResNum=1) 0    -0.33512   3.30423   0.82638  L 
 C(PDBName=C22,ResName=MOL,ResNum=1) 0    -4.74657  -0.0483    0.12655  L 
 H(PDBName=H23,ResName=MOL,ResNum=1) 0     2.74508   1.68654  -0.6837   L 
 H(PDBName=H24,ResName=MOL,ResNum=1) 0     4.11105   0.99357  -1.62375  L 
 H(PDBName=H25,ResName=MOL,ResNum=1) 0     4.52131  -1.52615  -1.35816  L 
 H(PDBName=H26,ResName=MOL,ResNum=1) 0     3.4117   -2.40128  -0.24414  L 
 H(PDBName=H27,ResName=MOL,ResNum=1) 0     5.05257   2.19048   0.30655  L 
 H(PDBName=H28,ResName=MOL,ResNum=1) 0     3.97809   1.28605   1.41751  L 
 H(PDBName=H29,ResName=MOL,ResNum=1) 0     4.39775  -1.21429   1.68205  L 
 H(PDBName=H30,ResName=MOL,ResNum=1) 0     5.73803  -1.93228   0.73738  L 
 H(PDBName=H31,ResName=MOL,ResNum=1) 0     6.33444   0.34723   1.10892  L 
 H(PDBName=H32,ResName=MOL,ResNum=1) 0     0.0067    2.64491  -1.21604  L 
 H(PDBName=H33,ResName=MOL,ResNum=1) 0    -1.62271   3.31776  -0.94084  L 
 H(PDBName=H34,ResName=MOL,ResNum=1) 0    -0.44552  -3.07901   0.13095  L 
 H(PDBName=H35,ResName=MOL,ResNum=1) 0    -3.34519   1.98801  -0.24182  L 
 H(PDBName=H36,ResName=MOL,ResNum=1) 0    -1.15087   3.33415   1.55513  L 
 H(PDBName=H37,ResName=MOL,ResNum=1) 0     0.47738   2.68845   1.21957  L 
 H(PDBName=H38,ResName=MOL,ResNum=1) 0     0.03482   4.32328   0.66974  L 
 H(PDBName=H39,ResName=MOL,ResNum=1) 0    -6.30847  -1.13454   0.38459  L 
 
 Center=      0.67386523      0.31363326      0.06051154
 Residue   1 PDB Number     1_0 MOL charge    0.00000000 layers R        AvRTP=      0.00000000      0.00000000      0.00000000

 GradGradGradGradGradGradGradGradGradGradGradGradGradGradGradGradGradGrad
 Berny optimization.
 Initialization pass.
                           ----------------------------
                           !    Initial Parameters    !
                           ! (Angstroms and Degrees)  !
 --------------------------                            --------------------------
 ! Name  Definition              Value          Derivative Info.                !
 --------------------------------------------------------------------------------
 ! R1    R(1,19)                 1.246          estimate D2E/DX2                !
 ! R2    R(2,22)                 1.3706         estimate D2E/DX2                !
 ! R3    R(2,39)                 0.9974         estimate D2E/DX2                !
 ! R4    R(3,22)                 1.2372         estimate D2E/DX2                !
 ! R5    R(4,9)                  1.4753         estimate D2E/DX2                !
 ! R6    R(4,10)                 1.4781         estimate D2E/DX2                !
 ! R7    R(4,13)                 1.3547         estimate D2E/DX2                !
 ! R8    R(5,11)                 1.4816         estimate D2E/DX2                !
 ! R9    R(5,12)                 1.483          estimate D2E/DX2                !
 ! R10   R(5,31)                 1.024          estimate D2E/DX2                !
 ! R11   R(6,14)                 1.3933         estimate D2E/DX2                !
 ! R12   R(6,16)                 1.4904         estimate D2E/DX2                !
 ! R13   R(6,18)                 1.364          estimate D2E/DX2                !
 ! R14   R(7,13)                 1.3588         estimate D2E/DX2                !
 ! R15   R(7,14)                 1.3392         estimate D2E/DX2                !
 ! R16   R(8,13)                 1.3765         estimate D2E/DX2                !
 ! R17   R(8,17)                 1.331          estimate D2E/DX2                !
 ! R18   R(9,11)                 1.5399         estimate D2E/DX2                !
 ! R19   R(9,23)                 1.0884         estimate D2E/DX2                !
 ! R20   R(9,24)                 1.0959         estimate D2E/DX2                !
 ! R21   R(10,12)                1.5394         estimate D2E/DX2                !
 ! R22   R(10,25)                1.0958         estimate D2E/DX2                !
 ! R23   R(10,26)                1.0887         estimate D2E/DX2                !
 ! R24   R(11,27)                1.0947         estimate D2E/DX2                !
 ! R25   R(11,28)                1.1056         estimate D2E/DX2                !
 ! R26   R(12,29)                1.1051         estimate D2E/DX2                !
 ! R27   R(12,30)                1.0945         estimate D2E/DX2                !
 ! R28   R(14,15)                1.4045         estimate D2E/DX2                !
 ! R29   R(15,17)                1.4018         estimate D2E/DX2                !
 ! R30   R(15,19)                1.4751         estimate D2E/DX2                !
 ! R31   R(16,21)                1.5383         estimate D2E/DX2                !
 ! R32   R(16,32)                1.0903         estimate D2E/DX2                !
 ! R33   R(16,33)                1.0929         estimate D2E/DX2                !
 ! R34   R(17,34)                1.0846         estimate D2E/DX2                !
 ! R35   R(18,20)                1.366          estimate D2E/DX2                !
 ! R36   R(18,35)                1.0838         estimate D2E/DX2                !
 ! R37   R(19,20)                1.4706         estimate D2E/DX2                !
 ! R38   R(20,22)                1.4712         estimate D2E/DX2                !
 ! R39   R(21,36)                1.0943         estimate D2E/DX2                !
 ! R40   R(21,37)                1.0927         estimate D2E/DX2                !
 ! R41   R(21,38)                1.0954         estimate D2E/DX2                !
 ! A1    A(22,2,39)            107.2955         estimate D2E/DX2                !
 ! A2    A(9,4,10)             115.031          estimate D2E/DX2                !
 ! A3    A(9,4,13)             122.6013         estimate D2E/DX2                !
 ! A4    A(10,4,13)            122.2501         estimate D2E/DX2                !
 ! A5    A(11,5,12)            111.5228         estimate D2E/DX2                !
 ! A6    A(11,5,31)            111.7841         estimate D2E/DX2                !
 ! A7    A(12,5,31)            111.77           estimate D2E/DX2                !
 ! A8    A(14,6,16)            120.0513         estimate D2E/DX2                !
 ! A9    A(14,6,18)            118.8637         estimate D2E/DX2                !
 ! A10   A(16,6,18)            121.0551         estimate D2E/DX2                !
 ! A11   A(13,7,14)            116.9633         estimate D2E/DX2                !
 ! A12   A(13,8,17)            116.5411         estimate D2E/DX2                !
 ! A13   A(4,9,11)             108.8718         estimate D2E/DX2                !
 ! A14   A(4,9,23)             108.0072         estimate D2E/DX2                !
 ! A15   A(4,9,24)             108.7537         estimate D2E/DX2                !
 ! A16   A(11,9,23)            111.8598         estimate D2E/DX2                !
 ! A17   A(11,9,24)            108.5629         estimate D2E/DX2                !
 ! A18   A(23,9,24)            110.7228         estimate D2E/DX2                !
 ! A19   A(4,10,12)            108.8358         estimate D2E/DX2                !
 ! A20   A(4,10,25)            108.6378         estimate D2E/DX2                !
 ! A21   A(4,10,26)            107.5978         estimate D2E/DX2                !
 ! A22   A(12,10,25)           108.6784         estimate D2E/DX2                !
 ! A23   A(12,10,26)           112.0951         estimate D2E/DX2                !
 ! A24   A(25,10,26)           110.9165         estimate D2E/DX2                !
 ! A25   A(5,11,9)             107.9848         estimate D2E/DX2                !
 ! A26   A(5,11,27)            108.8936         estimate D2E/DX2                !
 ! A27   A(5,11,28)            113.2849         estimate D2E/DX2                !
 ! A28   A(9,11,27)            109.4145         estimate D2E/DX2                !
 ! A29   A(9,11,28)            108.2625         estimate D2E/DX2                !
 ! A30   A(27,11,28)           108.9444         estimate D2E/DX2                !
 ! A31   A(5,12,10)            108.1545         estimate D2E/DX2                !
 ! A32   A(5,12,29)            113.1667         estimate D2E/DX2                !
 ! A33   A(5,12,30)            108.8638         estimate D2E/DX2                !
 ! A34   A(10,12,29)           108.3149         estimate D2E/DX2                !
 ! A35   A(10,12,30)           109.35           estimate D2E/DX2                !
 ! A36   A(29,12,30)           108.9358         estimate D2E/DX2                !
 ! A37   A(4,13,7)             118.4026         estimate D2E/DX2                !
 ! A38   A(4,13,8)             117.2908         estimate D2E/DX2                !
 ! A39   A(7,13,8)             124.3065         estimate D2E/DX2                !
 ! A40   A(6,14,7)             117.7925         estimate D2E/DX2                !
 ! A41   A(6,14,15)            118.8928         estimate D2E/DX2                !
 ! A42   A(7,14,15)            123.3147         estimate D2E/DX2                !
 ! A43   A(14,15,17)           115.0595         estimate D2E/DX2                !
 ! A44   A(14,15,19)           124.2568         estimate D2E/DX2                !
 ! A45   A(17,15,19)           120.6836         estimate D2E/DX2                !
 ! A46   A(6,16,21)            111.454          estimate D2E/DX2                !
 ! A47   A(6,16,32)            107.0399         estimate D2E/DX2                !
 ! A48   A(6,16,33)            106.9137         estimate D2E/DX2                !
 ! A49   A(21,16,32)           110.3765         estimate D2E/DX2                !
 ! A50   A(21,16,33)           111.2829         estimate D2E/DX2                !
 ! A51   A(32,16,33)           109.6235         estimate D2E/DX2                !
 ! A52   A(8,17,15)            123.8138         estimate D2E/DX2                !
 ! A53   A(8,17,34)            118.466          estimate D2E/DX2                !
 ! A54   A(15,17,34)           117.7203         estimate D2E/DX2                !
 ! A55   A(6,18,20)            125.14           estimate D2E/DX2                !
 ! A56   A(6,18,35)            116.8508         estimate D2E/DX2                !
 ! A57   A(20,18,35)           118.0081         estimate D2E/DX2                !
 ! A58   A(1,19,15)            121.2958         estimate D2E/DX2                !
 ! A59   A(1,19,20)            126.669          estimate D2E/DX2                !
 ! A60   A(15,19,20)           112.0352         estimate D2E/DX2                !
 ! A61   A(18,20,19)           120.8103         estimate D2E/DX2                !
 ! A62   A(18,20,22)           113.8051         estimate D2E/DX2                !
 ! A63   A(19,20,22)           125.3844         estimate D2E/DX2                !
 ! A64   A(16,21,36)           110.6996         estimate D2E/DX2                !
 ! A65   A(16,21,37)           109.3193         estimate D2E/DX2                !
 ! A66   A(16,21,38)           109.82           estimate D2E/DX2                !
 ! A67   A(36,21,37)           109.2744         estimate D2E/DX2                !
 ! A68   A(36,21,38)           108.7568         estimate D2E/DX2                !
 ! A69   A(37,21,38)           108.942          estimate D2E/DX2                !
 ! A70   A(2,22,3)             122.0222         estimate D2E/DX2                !
 ! A71   A(2,22,20)            113.4797         estimate D2E/DX2                !
 ! A72   A(3,22,20)            124.4981         estimate D2E/DX2                !
 ! D1    D(39,2,22,3)            0.0347         estimate D2E/DX2                !
 ! D2    D(39,2,22,20)        -179.9492         estimate D2E/DX2                !
 ! D3    D(10,4,9,11)          -55.9051         estimate D2E/DX2                !
 ! D4    D(10,4,9,23)         -177.5646         estimate D2E/DX2                !
 ! D5    D(10,4,9,24)           62.2169         estimate D2E/DX2                !
 ! D6    D(13,4,9,11)          120.23           estimate D2E/DX2                !
 ! D7    D(13,4,9,23)           -1.4294         estimate D2E/DX2                !
 ! D8    D(13,4,9,24)         -121.6479         estimate D2E/DX2                !
 ! D9    D(9,4,10,12)           55.6779         estimate D2E/DX2                !
 ! D10   D(9,4,10,25)          -62.4964         estimate D2E/DX2                !
 ! D11   D(9,4,10,26)          177.3554         estimate D2E/DX2                !
 ! D12   D(13,4,10,12)        -120.4724         estimate D2E/DX2                !
 ! D13   D(13,4,10,25)         121.3533         estimate D2E/DX2                !
 ! D14   D(13,4,10,26)           1.2052         estimate D2E/DX2                !
 ! D15   D(9,4,13,7)             2.1089         estimate D2E/DX2                !
 ! D16   D(9,4,13,8)          -178.0262         estimate D2E/DX2                !
 ! D17   D(10,4,13,7)          177.9678         estimate D2E/DX2                !
 ! D18   D(10,4,13,8)           -2.1673         estimate D2E/DX2                !
 ! D19   D(12,5,11,9)          -63.0055         estimate D2E/DX2                !
 ! D20   D(12,5,11,27)         178.2776         estimate D2E/DX2                !
 ! D21   D(12,5,11,28)          56.888          estimate D2E/DX2                !
 ! D22   D(31,5,11,9)          171.0536         estimate D2E/DX2                !
 ! D23   D(31,5,11,27)          52.3367         estimate D2E/DX2                !
 ! D24   D(31,5,11,28)         -69.0529         estimate D2E/DX2                !
 ! D25   D(11,5,12,10)          62.8891         estimate D2E/DX2                !
 ! D26   D(11,5,12,29)         -57.1122         estimate D2E/DX2                !
 ! D27   D(11,5,12,30)        -178.3914         estimate D2E/DX2                !
 ! D28   D(31,5,12,10)        -171.1622         estimate D2E/DX2                !
 ! D29   D(31,5,12,29)          68.8365         estimate D2E/DX2                !
 ! D30   D(31,5,12,30)         -52.4427         estimate D2E/DX2                !
 ! D31   D(16,6,14,7)           -1.6768         estimate D2E/DX2                !
 ! D32   D(16,6,14,15)         178.3708         estimate D2E/DX2                !
 ! D33   D(18,6,14,7)         -179.7101         estimate D2E/DX2                !
 ! D34   D(18,6,14,15)           0.3375         estimate D2E/DX2                !
 ! D35   D(14,6,16,21)         -81.5271         estimate D2E/DX2                !
 ! D36   D(14,6,16,32)          39.2523         estimate D2E/DX2                !
 ! D37   D(14,6,16,33)         156.6612         estimate D2E/DX2                !
 ! D38   D(18,6,16,21)          96.4624         estimate D2E/DX2                !
 ! D39   D(18,6,16,32)        -142.7582         estimate D2E/DX2                !
 ! D40   D(18,6,16,33)         -25.3493         estimate D2E/DX2                !
 ! D41   D(14,6,18,20)          -0.3131         estimate D2E/DX2                !
 ! D42   D(14,6,18,35)        -179.9125         estimate D2E/DX2                !
 ! D43   D(16,6,18,20)        -178.326          estimate D2E/DX2                !
 ! D44   D(16,6,18,35)           2.0747         estimate D2E/DX2                !
 ! D45   D(14,7,13,4)          179.4504         estimate D2E/DX2                !
 ! D46   D(14,7,13,8)           -0.4042         estimate D2E/DX2                !
 ! D47   D(13,7,14,6)         -179.6062         estimate D2E/DX2                !
 ! D48   D(13,7,14,15)           0.3439         estimate D2E/DX2                !
 ! D49   D(17,8,13,4)         -179.6193         estimate D2E/DX2                !
 ! D50   D(17,8,13,7)            0.2368         estimate D2E/DX2                !
 ! D51   D(13,8,17,15)           0.0013         estimate D2E/DX2                !
 ! D52   D(13,8,17,34)        -179.9647         estimate D2E/DX2                !
 ! D53   D(4,9,11,5)            56.6552         estimate D2E/DX2                !
 ! D54   D(4,9,11,27)          175.0396         estimate D2E/DX2                !
 ! D55   D(4,9,11,28)          -66.3544         estimate D2E/DX2                !
 ! D56   D(23,9,11,5)          175.9395         estimate D2E/DX2                !
 ! D57   D(23,9,11,27)         -65.6761         estimate D2E/DX2                !
 ! D58   D(23,9,11,28)          52.9299         estimate D2E/DX2                !
 ! D59   D(24,9,11,5)          -61.5871         estimate D2E/DX2                !
 ! D60   D(24,9,11,27)          56.7973         estimate D2E/DX2                !
 ! D61   D(24,9,11,28)         175.4032         estimate D2E/DX2                !
 ! D62   D(4,10,12,5)          -56.2373         estimate D2E/DX2                !
 ! D63   D(4,10,12,29)          66.7632         estimate D2E/DX2                !
 ! D64   D(4,10,12,30)        -174.6474         estimate D2E/DX2                !
 ! D65   D(25,10,12,5)          61.9114         estimate D2E/DX2                !
 ! D66   D(25,10,12,29)       -175.0881         estimate D2E/DX2                !
 ! D67   D(25,10,12,30)        -56.4987         estimate D2E/DX2                !
 ! D68   D(26,10,12,5)        -175.1347         estimate D2E/DX2                !
 ! D69   D(26,10,12,29)        -52.1341         estimate D2E/DX2                !
 ! D70   D(26,10,12,30)         66.4553         estimate D2E/DX2                !
 ! D71   D(6,14,15,17)         179.8184         estimate D2E/DX2                !
 ! D72   D(6,14,15,19)          -0.3152         estimate D2E/DX2                !
 ! D73   D(7,14,15,17)          -0.1312         estimate D2E/DX2                !
 ! D74   D(7,14,15,19)         179.7352         estimate D2E/DX2                !
 ! D75   D(14,15,17,8)          -0.0506         estimate D2E/DX2                !
 ! D76   D(14,15,17,34)        179.9156         estimate D2E/DX2                !
 ! D77   D(19,15,17,8)        -179.9222         estimate D2E/DX2                !
 ! D78   D(19,15,17,34)          0.044          estimate D2E/DX2                !
 ! D79   D(14,15,19,1)        -179.7682         estimate D2E/DX2                !
 ! D80   D(14,15,19,20)          0.2216         estimate D2E/DX2                !
 ! D81   D(17,15,19,1)           0.091          estimate D2E/DX2                !
 ! D82   D(17,15,19,20)       -179.9191         estimate D2E/DX2                !
 ! D83   D(6,16,21,36)         -58.6204         estimate D2E/DX2                !
 ! D84   D(6,16,21,37)          61.8037         estimate D2E/DX2                !
 ! D85   D(6,16,21,38)        -178.7247         estimate D2E/DX2                !
 ! D86   D(32,16,21,36)       -177.4259         estimate D2E/DX2                !
 ! D87   D(32,16,21,37)        -57.0018         estimate D2E/DX2                !
 ! D88   D(32,16,21,38)         62.4699         estimate D2E/DX2                !
 ! D89   D(33,16,21,36)         60.6251         estimate D2E/DX2                !
 ! D90   D(33,16,21,37)       -178.9508         estimate D2E/DX2                !
 ! D91   D(33,16,21,38)        -59.4791         estimate D2E/DX2                !
 ! D92   D(6,18,20,19)           0.2339         estimate D2E/DX2                !
 ! D93   D(6,18,20,22)        -179.62           estimate D2E/DX2                !
 ! D94   D(35,18,20,19)        179.829          estimate D2E/DX2                !
 ! D95   D(35,18,20,22)         -0.0249         estimate D2E/DX2                !
 ! D96   D(1,19,20,18)         179.82           estimate D2E/DX2                !
 ! D97   D(1,19,20,22)          -0.344          estimate D2E/DX2                !
 ! D98   D(15,19,20,18)         -0.1692         estimate D2E/DX2                !
 ! D99   D(15,19,20,22)        179.6668         estimate D2E/DX2                !
 ! D100  D(18,20,22,2)         179.7713         estimate D2E/DX2                !
 ! D101  D(18,20,22,3)          -0.2121         estimate D2E/DX2                !
 ! D102  D(19,20,22,2)          -0.0747         estimate D2E/DX2                !
 ! D103  D(19,20,22,3)         179.9419         estimate D2E/DX2                !
 --------------------------------------------------------------------------------
 Trust Radius=3.00D-01 FncErr=1.00D-07 GrdErr=1.00D-06
 Number of steps in this run=    226 maximum allowed number of steps=    234.
 GradGradGradGradGradGradGradGradGradGradGradGradGradGradGradGradGradGrad

                          Input orientation:                          
 ---------------------------------------------------------------------
 Center     Atomic      Atomic             Coordinates (Angstroms)
 Number     Number       Type             X           Y           Z
 ---------------------------------------------------------------------
      1          8           0       -2.875974   -2.482165    0.273124
      2          8           0       -5.323257   -1.276312    0.321207
      3          8           0       -5.418298    0.988403    0.057433
      4          7           0        2.979855   -0.379079   -0.504184
      5          7           0        5.564006    0.151387    0.463492
      6          7           0       -1.360733    1.336777   -0.332096
      7          7           0        0.818306    0.487771   -0.409867
      8          7           0        1.229970   -1.882397   -0.160926
      9          6           0        3.560877    0.966053   -0.676371
     10          6           0        3.963702   -1.478711   -0.415988
     11          6           0        4.550453    1.232054    0.473112
     12          6           0        4.949943   -1.172824    0.725698
     13          6           0        1.649294   -0.585881   -0.355528
     14          6           0       -0.492114    0.249053   -0.270757
     15          6           0       -1.025210   -1.034552   -0.068979
     16          6           0       -0.820291    2.714456   -0.508950
     17          6           0       -0.080772   -2.069426   -0.024490
     18          6           0       -2.699414    1.119340   -0.187133
     19          6           0       -2.463313   -1.320458    0.092309
     20          6           0       -3.280767   -0.100615    0.011982
     21          6           0       -0.335115    3.304225    0.826378
     22          6           0       -4.746565   -0.048303    0.126552
     23          1           0        2.745075    1.686539   -0.683699
     24          1           0        4.111054    0.993569   -1.623745
     25          1           0        4.521308   -1.526149   -1.358161
     26          1           0        3.411700   -2.401276   -0.244144
     27          1           0        5.052567    2.190484    0.306547
     28          1           0        3.978091    1.286048    1.417506
     29          1           0        4.397751   -1.214289    1.682047
     30          1           0        5.738027   -1.932284    0.737379
     31          1           0        6.334443    0.347234    1.108915
     32          1           0        0.006699    2.644911   -1.216035
     33          1           0       -1.622710    3.317763   -0.940840
     34          1           0       -0.445519   -3.079007    0.130952
     35          1           0       -3.345186    1.988013   -0.241819
     36          1           0       -1.150866    3.334155    1.555131
     37          1           0        0.477378    2.688450    1.219568
     38          1           0        0.034823    4.323277    0.669742
     39          1           0       -6.308474   -1.134537    0.384588
 ---------------------------------------------------------------------
                    Distance matrix (angstroms):
                    1          2          3          4          5
     1  O    0.000000
     2  O    2.728660   0.000000
     3  O    4.307526   2.282004   0.000000
     4  N    6.270400   8.392137   8.527274   0.000000
     5  N    8.843365  10.981396  11.021637   2.809916   0.000000
     6  N    4.152898   4.791308   4.091079   4.670597   7.070369
     7  N    4.789019   6.431583   6.274092   2.330798   4.837104
     8  N    4.172157   6.598831   7.244904   2.332357   4.828048
     9  C    7.363749   9.216898   9.009137   1.475336   2.444482
    10  C    6.947155   9.318371   9.712502   1.478149   2.447790
    11  C    8.305856  10.188480   9.980388   2.453087   1.481629
    12  C    7.947589  10.281681  10.612158   2.454361   1.483024
    13  C    4.946630   7.039257   7.252569   1.354717   4.066857
    14  C    3.665808   5.100696   4.992157   3.536044   6.101250
    15  C    2.374436   4.322488   4.838135   4.081617   6.716230
    16  C    5.642902   6.073886   4.943856   4.900111   6.947965
    17  C    2.841141   5.313397   6.151928   3.529138   6.085528
    18  C    3.635086   3.589166   2.733000   5.882166   8.345319
    19  C    1.246012   2.869429   3.750199   5.556085   8.169575
    20  C    2.429780   2.376899   2.399388   6.288033   8.859874
    21  C    6.343845   6.791029   5.638533   5.130901   6.698634
    22  C    3.073154   1.370573   1.237240   7.759176  10.318008
    23  H    7.063271   8.653687   8.226623   2.086654   3.408682
    24  H    8.031027   9.896536   9.676515   2.101711   2.678973
    25  H    7.635106   9.989903  10.350007   2.102647   2.686962
    26  H    6.309434   8.825227   9.463072   2.084081   3.413101
    27  H    9.203072  10.939681  10.542584   3.399423   2.108108
    28  H    7.904888   9.709925   9.498975   2.731669   2.170881
    29  H    7.516625   9.815994  10.190488   2.736350   2.170276
    30  H    8.644010  11.088530  11.552330   3.400211   2.108787
    31  H    9.671392  11.796540  11.817091   3.792477   1.023963
    32  H    6.067479   6.793198   5.813461   4.300105   6.318396
    33  H    6.056694   6.032606   4.563875   5.919537   7.977905
    34  H    2.506700   5.203675   6.424777   4.407516   6.830843
    35  H    4.524137   3.858184   2.320898   6.758558   9.123835
    36  H    6.200735   6.339386   5.094765   5.923828   7.510739
    37  H    6.235061   7.083344   6.244975   4.317806   5.734294
    38  H    7.412428   7.757957   6.421280   5.671284   6.929579
    39  H    3.689252   0.997381   2.325149   9.361287  11.942178
                    6          7          8          9         10
     6  N    0.000000
     7  N    2.339887   0.000000
     8  N    4.135713   2.418499   0.000000
     9  C    4.947546   2.796690   3.716514   0.000000
    10  C    6.023589   3.709529   2.775123   2.491373   0.000000
    11  C    5.966695   3.906729   4.596457   1.539912   2.912563
    12  C    6.873257   4.595379   3.889447   2.910343   1.539378
    13  C    3.571754   1.358758   1.376465   2.483060   2.481388
    14  C    1.393343   1.339231   2.742392   4.135861   4.781271
    15  C    2.409358   2.415000   2.411044   5.040192   5.020651
    16  C    1.490421   2.766395   5.045369   4.720125   6.362223
    17  C    3.651731   2.737903   1.331029   4.785466   4.106091
    18  C    1.363950   3.580900   4.944812   6.281249   7.155373
    19  C    2.908041   3.780330   3.744361   6.489212   6.449026
    20  C    2.423018   4.162518   4.852978   6.958427   7.386788
    21  C    2.502959   3.284980   5.506842   4.785818   6.549792
    22  C    3.686823   5.616307   6.258236   8.407568   8.843595
    23  H    4.135652   2.285709   3.912306   1.088433   3.402283
    24  H    5.632637   3.545634   4.325698   1.095887   2.755460
    25  H    6.621749   4.320574   3.520396   2.756508   1.095840
    26  H    6.062746   3.885840   2.244127   3.398232   1.088744
    27  H    6.501315   4.619680   5.605278   2.165756   3.894955
    28  H    5.618427   3.736413   4.481368   2.158885   3.317499
    29  H    6.612477   4.481689   3.725286   3.319094   2.158719
    30  H    7.888151   5.601473   4.596958   3.890890   2.164304
    31  H    7.891226   5.723130   5.713090   3.356017   3.358544
    32  H    2.088644   2.441693   4.806887   3.967617   5.770806
    33  H    2.088901   3.774831   5.982283   5.698250   7.381709
    34  H    4.533341   3.822518   2.079503   5.750260   4.722427
    35  H    2.090529   4.428728   5.993219   6.994780   8.091252
    36  H    2.755937   3.980045   5.985453   5.726083   7.294367
    37  H    2.759227   2.759398   4.833715   4.008641   5.674040
    38  H    3.445350   4.060851   6.374071   5.051339   7.090696
    39  H    5.576842   7.352145   7.595065  10.146044  10.309073
                   11         12         13         14         15
    11  C    0.000000
    12  C    2.450884   0.000000
    13  C    3.522535   3.522476   0.000000
    14  C    5.191061   5.712324   2.299985   0.000000
    15  C    6.043127   6.029352   2.726974   1.404474   0.000000
    16  C    5.657460   7.066180   4.124877   2.498529   3.780295
    17  C    5.709258   5.164762   2.302959   2.367529   1.401751
    18  C    7.280742   8.037409   4.674120   2.374145   2.730599
    19  C    7.473503   7.441730   4.201630   2.545743   1.475092
    20  C    7.957176   8.330883   4.967499   2.824676   2.442607
    21  C    5.318596   6.927189   4.524125   3.249989   4.483624
    22  C    9.391164   9.779867   6.436490   4.283296   3.854790
    23  H    2.191839   3.876055   2.544076   3.565989   4.690124
    24  H    2.155634   3.304070   3.187993   4.855310   5.736879
    25  H    3.310905   2.156626   3.183998   5.428461   5.715551
    26  H    3.874571   2.194511   2.532615   4.718550   4.645943
    27  H    1.094738   3.390879   4.441713   5.903043   6.890664
    28  H    1.105619   2.732974   3.474344   4.889614   5.712079
    29  H    2.733027   1.105097   3.478595   5.464942   5.701483
    30  H    3.390163   1.094528   4.441282   6.677516   6.870044
    31  H    2.090400   2.091476   4.996591   6.965272   7.580321
    32  H    5.049266   6.540725   3.725132   2.623452   3.989865
    33  H    6.667637   8.132803   5.127089   3.338299   4.478816
    34  H    6.607727   5.753109   3.292504   3.352540   2.134434
    35  H    7.963901   8.929510   5.619848   3.341383   3.814192
    36  H    6.172085   7.630248   5.182489   3.644952   4.662523
    37  H    4.389559   5.929349   3.817795   3.018549   4.216499
    38  H    5.475878   7.373511   5.268541   4.214440   5.511416
    39  H   11.114175  11.263648   8.010922   6.014469   5.303640
                   16         17         18         19         20
    16  C    0.000000
    17  C    4.864886   0.000000
    18  C    2.485772   4.129403   0.000000
    19  C    4.397905   2.500219   2.467072   0.000000
    20  C    3.774909   3.757328   1.365983   1.470612   0.000000
    21  C    1.538286   5.446539   3.375031   5.143518   4.575264
    22  C    4.842760   5.086981   2.377523   2.613961   1.471199
    23  H    3.714699   4.746287   5.496431   6.063953   6.323659
    24  H    5.340635   5.432399   6.961476   7.177873   7.649304
    25  H    6.872887   4.822133   7.778737   7.136603   8.048715
    26  H    6.644591   3.515072   7.052921   5.983072   7.081508
    27  H    5.952314   6.678891   7.841191   8.298257   8.647564
    28  H    5.364331   5.460122   6.869624   7.074016   7.522589
    29  H    6.889374   4.868336   7.701260   7.043631   7.936563
    30  H    8.133699   5.870066   9.019842   8.249389   9.231460
    31  H    7.707882   6.948369   9.158955   9.011947   9.687935
    32  H    1.090284   4.863374   3.272469   4.851482   4.455712
    33  H    1.092879   5.677946   2.561334   4.825671   3.916929
    34  H    5.840731   1.084646   4.775703   2.676842   4.113831
    35  H    2.640866   5.212144   1.083792   3.440250   2.104978
    36  H    2.180307   5.730532   3.215414   5.052503   4.326134
    37  H    2.161572   4.949404   3.812207   5.098011   4.833301
    38  H    2.169986   6.431327   4.298314   6.198859   5.567460
    39  H    6.762641   6.310755   4.293267   3.860733   3.221000
                   21         22         23         24         25
    21  C    0.000000
    22  C    5.584809   0.000000
    23  H    3.792731   7.732455   0.000000
    24  H    5.577692   9.088809   1.797162   0.000000
    25  H    7.189546   9.501677   3.732461   2.566675   0.000000
    26  H    6.909224   8.498893   4.165073   3.730599   1.799475
    27  H    5.526098  10.053236   2.561068   2.458674   4.106927
    28  H    4.798564   8.920016   2.468964   3.058174   3.988466
    29  H    6.599179   9.348669   4.091808   3.985611   3.058658
    30  H    8.019476  10.670012   4.906435   4.096653   2.456957
    31  H    7.301139  11.131497   4.229748   3.581709   3.589357
    32  H    2.173242   5.625785   2.949671   4.442847   6.148141
    33  H    2.186583   4.714679   4.669535   6.224491   7.834960
    34  H    6.421951   5.261576   5.792579   6.358238   5.412781
    35  H    3.454560   2.499229   6.113708   7.648147   8.687766
    36  H    1.094270   5.139155   4.785954   6.578100   8.017692
    37  H    1.092667   5.997840   3.125492   4.915349   6.384426
    38  H    1.095379   6.501341   4.016174   5.741315   7.645700
    39  H    7.455119   1.919908   9.542875  10.822606  10.976097
                   26         27         28         29         30
    26  H    0.000000
    27  H    4.907134   0.000000
    28  H    4.083900   1.790735   0.000000
    29  H    2.468086   3.730049   2.549075   0.000000
    30  H    2.568100   4.201510   3.730631   1.790043   0.000000
    31  H    4.234088   2.384234   2.555190   2.552961   2.385362
    32  H    6.164625   5.290136   4.955199   6.524848   7.590432
    33  H    7.651018   6.883753   6.407701   7.979034   9.195644
    34  H    3.934229   7.617566   6.346436   5.416672   6.318146
    35  H    8.057380   8.418073   7.541651   8.597039   9.941444
    36  H    7.546494   6.430360   5.524480   7.175765   8.709819
    37  H    6.054586   4.691901   3.776361   5.551088   7.018413
    38  H    7.580112   5.464291   5.033217   7.122116   8.465409
    39  H    9.822511  11.837868  10.617889  10.784851  12.078040
                   31         32         33         34         35
    31  H    0.000000
    32  H    7.122152   0.000000
    33  H    8.737381   1.784219   0.000000
    34  H    7.659205   5.897636   6.591903   0.000000
    35  H    9.910189   3.551865   2.285561   5.849933   0.000000
    36  H    8.071596   3.081294   2.540232   6.607151   3.139453
    37  H    6.308625   2.481047   3.077949   5.941413   4.151898
    38  H    7.462372   2.524650   2.520406   7.437394   4.208190
    39  H   12.750045   7.531775   6.598191   6.182195   4.350147
                   36         37         38         39
    36  H    0.000000
    37  H    1.783456   0.000000
    38  H    1.779925   1.780680   0.000000
    39  H    6.923893   7.833276   8.372960   0.000000
 Stoichiometry    C14H17N5O3
 Framework group  C1[X(C14H17N5O3)]
 Deg. of freedom   111
 Full point group                 C1      NOp   1
 Largest Abelian subgroup         C1      NOp   1
 Largest concise Abelian subgroup C1      NOp   1
                         Standard orientation:                         
 ---------------------------------------------------------------------
 Center     Atomic      Atomic             Coordinates (Angstroms)
 Number     Number       Type             X           Y           Z
 ---------------------------------------------------------------------
      1          8           0       -2.875974   -2.482165    0.273124
      2          8           0       -5.323257   -1.276312    0.321207
      3          8           0       -5.418298    0.988403    0.057433
      4          7           0        2.979855   -0.379079   -0.504184
      5          7           0        5.564006    0.151387    0.463492
      6          7           0       -1.360733    1.336777   -0.332096
      7          7           0        0.818306    0.487771   -0.409867
      8          7           0        1.229970   -1.882397   -0.160926
      9          6           0        3.560877    0.966053   -0.676371
     10          6           0        3.963702   -1.478711   -0.415988
     11          6           0        4.550453    1.232054    0.473112
     12          6           0        4.949943   -1.172824    0.725698
     13          6           0        1.649294   -0.585881   -0.355528
     14          6           0       -0.492114    0.249053   -0.270757
     15          6           0       -1.025210   -1.034552   -0.068979
     16          6           0       -0.820291    2.714456   -0.508950
     17          6           0       -0.080772   -2.069426   -0.024490
     18          6           0       -2.699414    1.119340   -0.187133
     19          6           0       -2.463313   -1.320458    0.092309
     20          6           0       -3.280767   -0.100615    0.011982
     21          6           0       -0.335115    3.304225    0.826378
     22          6           0       -4.746565   -0.048303    0.126552
     23          1           0        2.745075    1.686539   -0.683699
     24          1           0        4.111054    0.993569   -1.623745
     25          1           0        4.521308   -1.526149   -1.358161
     26          1           0        3.411700   -2.401276   -0.244144
     27          1           0        5.052567    2.190484    0.306547
     28          1           0        3.978091    1.286048    1.417506
     29          1           0        4.397751   -1.214289    1.682047
     30          1           0        5.738027   -1.932284    0.737379
     31          1           0        6.334443    0.347234    1.108915
     32          1           0        0.006699    2.644911   -1.216035
     33          1           0       -1.622710    3.317763   -0.940840
     34          1           0       -0.445519   -3.079007    0.130952
     35          1           0       -3.345186    1.988013   -0.241819
     36          1           0       -1.150866    3.334155    1.555131
     37          1           0        0.477378    2.688450    1.219568
     38          1           0        0.034823    4.323277    0.669742
     39          1           0       -6.308474   -1.134537    0.384588
 ---------------------------------------------------------------------
 Rotational constants (GHZ):      0.6525780      0.1452782      0.1224831
 Standard basis: LANL2DZ (5D, 7F)
 There are   232 symmetry adapted cartesian basis functions of A   symmetry.
 There are   232 symmetry adapted basis functions of A   symmetry.
   232 basis functions,   618 primitive gaussians,   232 cartesian basis functions
    80 alpha electrons       80 beta electrons
       nuclear repulsion energy      1805.1062857681 Hartrees.
 NAtoms=   39 NActive=   39 NUniq=   39 SFac= 1.00D+00 NAtFMM=   60 NAOKFM=F Big=F
 Integral buffers will be    131072 words long.
 Raffenetti 2 integral format.
 Two-electron integral symmetry is turned on.
 One-electron integrals computed using PRISM.
 PrsmSu:  requested number of processors reduced to:   9 ShMem   1 Linda.
   1 Symmetry operations used in ECPInt.
 ECPInt:  NShTT=   10440 NPrTT=   80068 LenC2=    9430 LenP2D=   40940.
 LDataN:  DoStor=T MaxTD1= 2 Len=   12
 Number of processors reduced to   9 by ecpmxn.
 NBasis=   232 RedAO= T EigKep=  7.61D-04  NBF=   232
 NBsUse=   232 1.00D-06 EigRej= -1.00D+00 NBFU=   232
 ExpMin= 1.15D-01 ExpMax= 7.82D+03 ExpMxC= 2.73D+02 IAcc=3 IRadAn=         5 AccDes= 0.00D+00
 Harris functional with IExCor= 1009 and IRadAn=       5 diagonalized for initial guess.
 HarFok:  IExCor= 1009 AccDes= 0.00D+00 IRadAn=         5 IDoV= 1 UseB2=F ITyADJ=14
 ICtDFT=  3500011 ScaDFX=  1.000000  1.000000  1.000000  1.000000
 FoFCou: FMM=F IPFlag=           0 FMFlag=      100000 FMFlg1=           0
         NFxFlg=           0 DoJE=T BraDBF=F KetDBF=T FulRan=T
         wScrn=  0.000000 ICntrl=     500 IOpCl=  0 I1Cent=   200000004 NGrid=           0
         NMat0=    1 NMatS0=      1 NMatT0=    0 NMatD0=    1 NMtDS0=    0 NMtDT0=    0
 Petite list used in FoFCou.
 Requested convergence on RMS density matrix=1.00D-08 within 128 cycles.
 Requested convergence on MAX density matrix=1.00D-06.
 Requested convergence on             energy=1.00D-06.
 No special actions if energy rises.
 Integral accuracy reduced to 1.0D-05 until final iterations.
 Initial convergence to 1.0D-05 achieved.  Increase integral accuracy.
 SCF Done:  E(RM06) =  -1042.34476879     A.U. after   17 cycles
            NFock= 17  Conv=0.39D-08     -V/T= 2.0048

 **********************************************************************

            Population analysis using the SCF density.

 **********************************************************************

 Orbital symmetries:
       Occupied  (A) (A) (A) (A) (A) (A) (A) (A) (A) (A) (A) (A)
                 (A) (A) (A) (A) (A) (A) (A) (A) (A) (A) (A) (A)
                 (A) (A) (A) (A) (A) (A) (A) (A) (A) (A) (A) (A)
                 (A) (A) (A) (A) (A) (A) (A) (A) (A) (A) (A) (A)
                 (A) (A) (A) (A) (A) (A) (A) (A) (A) (A) (A) (A)
                 (A) (A) (A) (A) (A) (A) (A) (A) (A) (A) (A) (A)
                 (A) (A) (A) (A) (A) (A) (A) (A)
       Virtual   (A) (A) (A) (A) (A) (A) (A) (A) (A) (A) (A) (A)
                 (A) (A) (A) (A) (A) (A) (A) (A) (A) (A) (A) (A)
                 (A) (A) (A) (A) (A) (A) (A) (A) (A) (A) (A) (A)
                 (A) (A) (A) (A) (A) (A) (A) (A) (A) (A) (A) (A)
                 (A) (A) (A) (A) (A) (A) (A) (A) (A) (A) (A) (A)
                 (A) (A) (A) (A) (A) (A) (A) (A) (A) (A) (A) (A)
                 (A) (A) (A) (A) (A) (A) (A) (A) (A) (A) (A) (A)
                 (A) (A) (A) (A) (A) (A) (A) (A) (A) (A) (A) (A)
                 (A) (A) (A) (A) (A) (A) (A) (A) (A) (A) (A) (A)
                 (A) (A) (A) (A) (A) (A) (A) (A) (A) (A) (A) (A)
                 (A) (A) (A) (A) (A) (A) (A) (A) (A) (A) (A) (A)
                 (A) (A) (A) (A) (A) (A) (A) (A) (A) (A) (A) (A)
                 (A) (A) (A) (A) (A) (A) (A) (A)
 The electronic state is 1-A.
 Alpha  occ. eigenvalues --  -19.26327 -19.21871 -19.19076 -14.48409 -14.44169
 Alpha  occ. eigenvalues --  -14.41847 -14.41453 -14.39798 -10.40391 -10.38276
 Alpha  occ. eigenvalues --  -10.36906 -10.34647 -10.33770 -10.31526 -10.31516
 Alpha  occ. eigenvalues --  -10.29149 -10.28845 -10.28585 -10.28505 -10.27747
 Alpha  occ. eigenvalues --  -10.27126 -10.25743  -1.13597  -1.05994  -1.04934
 Alpha  occ. eigenvalues --   -1.04523  -1.02562  -0.97096  -0.92741  -0.92033
 Alpha  occ. eigenvalues --   -0.85126  -0.82372  -0.79261  -0.78618  -0.74506
 Alpha  occ. eigenvalues --   -0.72333  -0.69126  -0.67327  -0.66849  -0.64373
 Alpha  occ. eigenvalues --   -0.63085  -0.61650  -0.57407  -0.57138  -0.55101
 Alpha  occ. eigenvalues --   -0.53964  -0.51552  -0.50553  -0.50067  -0.49463
 Alpha  occ. eigenvalues --   -0.48786  -0.48230  -0.48029  -0.47213  -0.46674
 Alpha  occ. eigenvalues --   -0.46041  -0.45557  -0.44916  -0.44228  -0.43064
 Alpha  occ. eigenvalues --   -0.41571  -0.41210  -0.40534  -0.40359  -0.39475
 Alpha  occ. eigenvalues --   -0.38797  -0.38219  -0.37930  -0.37638  -0.36856
 Alpha  occ. eigenvalues --   -0.33931  -0.33449  -0.33236  -0.32500  -0.29465
 Alpha  occ. eigenvalues --   -0.26521  -0.25728  -0.24799  -0.24663  -0.23316
 Alpha virt. eigenvalues --   -0.06761  -0.04242  -0.01301   0.02453   0.08909
 Alpha virt. eigenvalues --    0.09265   0.09800   0.10637   0.10878   0.11623
 Alpha virt. eigenvalues --    0.12700   0.13492   0.13573   0.14735   0.15107
 Alpha virt. eigenvalues --    0.15311   0.15989   0.16631   0.16819   0.17178
 Alpha virt. eigenvalues --    0.17769   0.18619   0.18997   0.19799   0.19986
 Alpha virt. eigenvalues --    0.20403   0.21154   0.21632   0.22219   0.22376
 Alpha virt. eigenvalues --    0.22892   0.23143   0.23440   0.23865   0.24722
 Alpha virt. eigenvalues --    0.25395   0.25457   0.26090   0.26311   0.27522
 Alpha virt. eigenvalues --    0.28238   0.28518   0.29516   0.30278   0.30517
 Alpha virt. eigenvalues --    0.30842   0.31849   0.33004   0.33715   0.34050
 Alpha virt. eigenvalues --    0.34132   0.34479   0.34855   0.35999   0.36509
 Alpha virt. eigenvalues --    0.36894   0.37494   0.38340   0.38533   0.39275
 Alpha virt. eigenvalues --    0.39740   0.39871   0.41004   0.42202   0.42766
 Alpha virt. eigenvalues --    0.43165   0.44444   0.45450   0.46175   0.47135
 Alpha virt. eigenvalues --    0.48277   0.48787   0.49374   0.49491   0.50429
 Alpha virt. eigenvalues --    0.51197   0.52748   0.53129   0.54254   0.55285
 Alpha virt. eigenvalues --    0.56661   0.56932   0.57265   0.59234   0.60894
 Alpha virt. eigenvalues --    0.63278   0.65824   0.67212   0.67447   0.68075
 Alpha virt. eigenvalues --    0.68705   0.69356   0.70583   0.72354   0.74351
 Alpha virt. eigenvalues --    0.75064   0.75376   0.77951   0.78092   0.80092
 Alpha virt. eigenvalues --    0.81529   0.84465   0.84972   0.87809   0.88389
 Alpha virt. eigenvalues --    0.88695   0.89986   0.91346   0.91847   0.93834
 Alpha virt. eigenvalues --    0.94973   0.97960   0.99957   1.01727   1.02431
 Alpha virt. eigenvalues --    1.02710   1.04646   1.05676   1.07266   1.08147
 Alpha virt. eigenvalues --    1.09345   1.09762   1.10246   1.11324   1.12790
 Alpha virt. eigenvalues --    1.13861   1.14467   1.15154   1.16447   1.18243
 Alpha virt. eigenvalues --    1.20015   1.22132   1.24431   1.26463   1.26664
 Alpha virt. eigenvalues --    1.30978   1.35477   1.37256   1.44186   1.46655
 Alpha virt. eigenvalues --    1.48453   1.51068   1.53382   1.61807   1.65064
 Alpha virt. eigenvalues --    1.68203   1.75860   1.79792   1.85010   1.86384
 Alpha virt. eigenvalues --    1.97684   2.00758
          Condensed to atoms (all electrons):
               1          2          3          4          5          6
     1  O    7.782189  -0.006634   0.000003   0.000000   0.000000   0.000159
     2  O   -0.006634   8.081437  -0.083343   0.000000   0.000000  -0.000012
     3  O    0.000003  -0.083343   7.885693   0.000000   0.000000   0.000685
     4  N    0.000000   0.000000   0.000000   6.901929  -0.010906   0.000425
     5  N    0.000000   0.000000   0.000000  -0.010906   6.782727   0.000000
     6  N    0.000159  -0.000012   0.000685   0.000425   0.000000   6.770479
     7  N   -0.000145   0.000000   0.000000  -0.088542   0.000140  -0.072661
     8  N    0.000277   0.000000   0.000000  -0.077581   0.000140  -0.001096
     9  C    0.000000   0.000000   0.000000   0.266050  -0.068286   0.000220
    10  C    0.000000   0.000000   0.000000   0.268134  -0.068140  -0.000009
    11  C    0.000000   0.000000   0.000000  -0.067295   0.310638  -0.000002
    12  C    0.000000   0.000000   0.000000  -0.066917   0.307385   0.000000
    13  C   -0.000089   0.000000   0.000000   0.235876  -0.002391  -0.009390
    14  C   -0.000770  -0.000084  -0.000109   0.000424   0.000002   0.181576
    15  C   -0.085592  -0.001054  -0.000377  -0.005444  -0.000001  -0.061271
    16  C    0.000006   0.000002   0.000238   0.000200   0.000000   0.232977
    17  C   -0.012851   0.000040   0.000005  -0.000515   0.000008   0.003513
    18  C    0.001649  -0.004907   0.003837   0.000054   0.000000   0.393243
    19  C    0.663106   0.001681  -0.003523  -0.000172   0.000000  -0.002095
    20  C   -0.063243  -0.031421  -0.058840  -0.000026   0.000000  -0.063477
    21  C   -0.000001   0.000000   0.000001  -0.000018   0.000000  -0.060913
    22  C   -0.007726   0.251084   0.584908   0.000000   0.000000   0.008049
    23  H    0.000000   0.000000   0.000000  -0.032843   0.003064  -0.000069
    24  H    0.000000   0.000000   0.000000  -0.053986   0.002056  -0.000001
    25  H    0.000000   0.000000   0.000000  -0.054511   0.001695   0.000000
    26  H    0.000000   0.000000   0.000000  -0.031925   0.002700   0.000001
    27  H    0.000000   0.000000   0.000000   0.004642  -0.035396   0.000000
    28  H    0.000000   0.000000   0.000000  -0.002164  -0.070300   0.000000
    29  H    0.000000   0.000000   0.000000  -0.002228  -0.070688   0.000000
    30  H    0.000000   0.000000   0.000000   0.004535  -0.035016   0.000000
    31  H    0.000000   0.000000   0.000000  -0.000344   0.320335   0.000000
    32  H    0.000000   0.000000   0.000000  -0.000050   0.000000  -0.039297
    33  H    0.000000   0.000000  -0.000005   0.000000   0.000000  -0.039968
    34  H    0.009354   0.000001   0.000000   0.000003   0.000000  -0.000184
    35  H   -0.000058   0.000336   0.012927   0.000000   0.000000  -0.037429
    36  H    0.000000   0.000000   0.000001   0.000000   0.000000  -0.003273
    37  H    0.000000   0.000000   0.000000  -0.000024   0.000000  -0.003976
    38  H    0.000000   0.000000   0.000000   0.000000   0.000000   0.004396
    39  H    0.000373   0.245643   0.003104   0.000000   0.000000   0.000002
               7          8          9         10         11         12
     1  O   -0.000145   0.000277   0.000000   0.000000   0.000000   0.000000
     2  O    0.000000   0.000000   0.000000   0.000000   0.000000   0.000000
     3  O    0.000000   0.000000   0.000000   0.000000   0.000000   0.000000
     4  N   -0.088542  -0.077581   0.266050   0.268134  -0.067295  -0.066917
     5  N    0.000140   0.000140  -0.068286  -0.068140   0.310638   0.307385
     6  N   -0.072661  -0.001096   0.000220  -0.000009  -0.000002   0.000000
     7  N    6.471953  -0.043101   0.002625  -0.002349  -0.000506  -0.000374
     8  N   -0.043101   6.393624  -0.001476  -0.004122  -0.000229  -0.000262
     9  C    0.002625  -0.001476   5.364853  -0.039649   0.261284  -0.003108
    10  C   -0.002349  -0.004122  -0.039649   5.374632  -0.003224   0.260661
    11  C   -0.000506  -0.000229   0.261284  -0.003224   5.360757  -0.085532
    12  C   -0.000374  -0.000262  -0.003108   0.260661  -0.085532   5.364966
    13  C    0.485454   0.477944  -0.088736  -0.094978  -0.009946  -0.010735
    14  C    0.464450  -0.057776   0.003101  -0.001444  -0.000050  -0.000125
    15  C   -0.025788  -0.010095  -0.000468  -0.000098  -0.000031  -0.000059
    16  C    0.003615   0.000164   0.000420  -0.000001   0.000013  -0.000001
    17  C   -0.047361   0.468989  -0.000698   0.003980  -0.000113   0.000171
    18  C   -0.006718  -0.000536   0.000029   0.000000   0.000001   0.000000
    19  C   -0.001677  -0.000777  -0.000009   0.000017   0.000000  -0.000002
    20  C   -0.003386  -0.000029  -0.000002   0.000001   0.000000   0.000000
    21  C   -0.006174  -0.000079   0.000117   0.000000   0.000006   0.000000
    22  C   -0.000021   0.000006   0.000000   0.000000   0.000000   0.000000
    23  H    0.014572   0.000388   0.349446   0.005489  -0.023822  -0.000519
    24  H   -0.000414   0.000063   0.357104  -0.004128  -0.040845  -0.002584
    25  H    0.000130  -0.000477  -0.004783   0.357796  -0.002466  -0.041369
    26  H    0.000485   0.016674   0.005594   0.350164  -0.000495  -0.023580
    27  H    0.000045  -0.000001  -0.018877  -0.001012   0.355647   0.007732
    28  H   -0.000693  -0.000045  -0.057176  -0.000143   0.354445  -0.009522
    29  H   -0.000028  -0.000674  -0.000088  -0.055760  -0.010256   0.357570
    30  H   -0.000002   0.000041  -0.001021  -0.019314   0.007843   0.357425
    31  H   -0.000001  -0.000001   0.005411   0.005507  -0.038225  -0.038062
    32  H    0.011557   0.000010  -0.000108   0.000002  -0.000001   0.000000
    33  H   -0.000215   0.000001  -0.000001   0.000000   0.000000   0.000000
    34  H   -0.001330  -0.033879   0.000003   0.000166   0.000000  -0.000003
    35  H   -0.000040  -0.000001   0.000000   0.000000   0.000000   0.000000
    36  H    0.000175   0.000000  -0.000002   0.000000   0.000000   0.000000
    37  H    0.001319   0.000012  -0.000053   0.000002   0.000063  -0.000001
    38  H   -0.000115   0.000000  -0.000001   0.000000   0.000000   0.000000
    39  H    0.000000   0.000000   0.000000   0.000000   0.000000   0.000000
              13         14         15         16         17         18
     1  O   -0.000089  -0.000770  -0.085592   0.000006  -0.012851   0.001649
     2  O    0.000000  -0.000084  -0.001054   0.000002   0.000040  -0.004907
     3  O    0.000000  -0.000109  -0.000377   0.000238   0.000005   0.003837
     4  N    0.235876   0.000424  -0.005444   0.000200  -0.000515   0.000054
     5  N   -0.002391   0.000002  -0.000001   0.000000   0.000008   0.000000
     6  N   -0.009390   0.181576  -0.061271   0.232977   0.003513   0.393243
     7  N    0.485454   0.464450  -0.025788   0.003615  -0.047361  -0.006718
     8  N    0.477944  -0.057776  -0.010095   0.000164   0.468989  -0.000536
     9  C   -0.088736   0.003101  -0.000468   0.000420  -0.000698   0.000029
    10  C   -0.094978  -0.001444  -0.000098  -0.000001   0.003980   0.000000
    11  C   -0.009946  -0.000050  -0.000031   0.000013  -0.000113   0.000001
    12  C   -0.010735  -0.000125  -0.000059  -0.000001   0.000171   0.000000
    13  C    5.469386  -0.291837  -0.036432  -0.002227  -0.243154  -0.001647
    14  C   -0.291837   5.676528   0.206900  -0.037166  -0.087322  -0.155896
    15  C   -0.036432   0.206900   5.651812   0.003045   0.271184   0.026383
    16  C   -0.002227  -0.037166   0.003045   5.225706  -0.000130  -0.043564
    17  C   -0.243154  -0.087322   0.271184  -0.000130   5.707355   0.004317
    18  C   -0.001647  -0.155896   0.026383  -0.043564   0.004317   5.544775
    19  C   -0.005390  -0.040970   0.125665   0.000724  -0.032864  -0.092292
    20  C   -0.001549   0.003455  -0.134316   0.002894  -0.021798   0.295815
    21  C    0.000468  -0.020410  -0.002096   0.280942  -0.000102  -0.002856
    22  C   -0.000043   0.003194  -0.028800   0.000459  -0.000202  -0.016295
    23  H   -0.007016   0.000066   0.000052  -0.000258   0.000106  -0.000005
    24  H    0.011548   0.000015   0.000010  -0.000013   0.000045   0.000000
    25  H    0.012171   0.000054   0.000001   0.000000   0.000019   0.000000
    26  H   -0.006538   0.000283   0.000014   0.000000  -0.000074   0.000000
    27  H   -0.000247   0.000007   0.000000   0.000000   0.000000   0.000000
    28  H    0.005838  -0.000032   0.000014  -0.000017   0.000026   0.000000
    29  H    0.006109   0.000039   0.000008   0.000000  -0.000051   0.000000
    30  H   -0.000274   0.000000   0.000000   0.000000   0.000007   0.000000
    31  H    0.000053   0.000000   0.000000   0.000000   0.000000   0.000000
    32  H    0.001553  -0.006275   0.000316   0.376263   0.000023   0.002145
    33  H   -0.000051   0.006289   0.000170   0.362840   0.000020   0.000895
    34  H    0.001537  -0.002692  -0.049077   0.000007   0.330860  -0.000192
    35  H   -0.000010  -0.000645  -0.002238  -0.001790  -0.000010   0.322184
    36  H    0.000027   0.000191  -0.000034  -0.036308   0.000001   0.003769
    37  H   -0.000052   0.006811   0.000297  -0.037702   0.000045  -0.000406
    38  H   -0.000010   0.000028   0.000001  -0.028208   0.000000  -0.000022
    39  H    0.000000   0.000001   0.000064   0.000000  -0.000001  -0.000387
              19         20         21         22         23         24
     1  O    0.663106  -0.063243  -0.000001  -0.007726   0.000000   0.000000
     2  O    0.001681  -0.031421   0.000000   0.251084   0.000000   0.000000
     3  O   -0.003523  -0.058840   0.000001   0.584908   0.000000   0.000000
     4  N   -0.000172  -0.000026  -0.000018   0.000000  -0.032843  -0.053986
     5  N    0.000000   0.000000   0.000000   0.000000   0.003064   0.002056
     6  N   -0.002095  -0.063477  -0.060913   0.008049  -0.000069  -0.000001
     7  N   -0.001677  -0.003386  -0.006174  -0.000021   0.014572  -0.000414
     8  N   -0.000777  -0.000029  -0.000079   0.000006   0.000388   0.000063
     9  C   -0.000009  -0.000002   0.000117   0.000000   0.349446   0.357104
    10  C    0.000017   0.000001   0.000000   0.000000   0.005489  -0.004128
    11  C    0.000000   0.000000   0.000006   0.000000  -0.023822  -0.040845
    12  C   -0.000002   0.000000   0.000000   0.000000  -0.000519  -0.002584
    13  C   -0.005390  -0.001549   0.000468  -0.000043  -0.007016   0.011548
    14  C   -0.040970   0.003455  -0.020410   0.003194   0.000066   0.000015
    15  C    0.125665  -0.134316  -0.002096  -0.028800   0.000052   0.000010
    16  C    0.000724   0.002894   0.280942   0.000459  -0.000258  -0.000013
    17  C   -0.032864  -0.021798  -0.000102  -0.000202   0.000106   0.000045
    18  C   -0.092292   0.295815  -0.002856  -0.016295  -0.000005   0.000000
    19  C    5.234161   0.011634   0.000087  -0.042284   0.000001   0.000000
    20  C    0.011634   5.905384  -0.000210   0.065774   0.000001   0.000000
    21  C    0.000087  -0.000210   5.407965  -0.000035   0.000154   0.000004
    22  C   -0.042284   0.065774  -0.000035   5.012606   0.000000   0.000000
    23  H    0.000001   0.000001   0.000154   0.000000   0.462753  -0.017153
    24  H    0.000000   0.000000   0.000004   0.000000  -0.017153   0.512245
    25  H    0.000000   0.000000   0.000000   0.000000   0.000069   0.004232
    26  H    0.000001   0.000000   0.000000   0.000000  -0.000059   0.000065
    27  H    0.000000   0.000000   0.000000   0.000000   0.000020  -0.003948
    28  H    0.000000   0.000000   0.000023   0.000000   0.001023   0.004703
    29  H    0.000000   0.000000   0.000000   0.000000   0.000113   0.000226
    30  H    0.000000   0.000000   0.000000   0.000000  -0.000002   0.000041
    31  H    0.000000   0.000000   0.000000   0.000000  -0.000092   0.000044
    32  H   -0.000046  -0.000096  -0.035583   0.000006   0.000520   0.000003
    33  H   -0.000062   0.000024  -0.042264   0.000033   0.000003   0.000000
    34  H    0.003486   0.002306  -0.000001   0.000012   0.000000   0.000000
    35  H    0.003338  -0.014452   0.000028  -0.008166   0.000000   0.000000
    36  H   -0.000002  -0.000005   0.372698   0.000017   0.000004   0.000000
    37  H    0.000008  -0.000013   0.374322   0.000000   0.000082   0.000002
    38  H    0.000000   0.000003   0.370568   0.000000  -0.000010   0.000000
    39  H    0.001654   0.005283   0.000000  -0.028867   0.000000   0.000000
              25         26         27         28         29         30
     1  O    0.000000   0.000000   0.000000   0.000000   0.000000   0.000000
     2  O    0.000000   0.000000   0.000000   0.000000   0.000000   0.000000
     3  O    0.000000   0.000000   0.000000   0.000000   0.000000   0.000000
     4  N   -0.054511  -0.031925   0.004642  -0.002164  -0.002228   0.004535
     5  N    0.001695   0.002700  -0.035396  -0.070300  -0.070688  -0.035016
     6  N    0.000000   0.000001   0.000000   0.000000   0.000000   0.000000
     7  N    0.000130   0.000485   0.000045  -0.000693  -0.000028  -0.000002
     8  N   -0.000477   0.016674  -0.000001  -0.000045  -0.000674   0.000041
     9  C   -0.004783   0.005594  -0.018877  -0.057176  -0.000088  -0.001021
    10  C    0.357796   0.350164  -0.001012  -0.000143  -0.055760  -0.019314
    11  C   -0.002466  -0.000495   0.355647   0.354445  -0.010256   0.007843
    12  C   -0.041369  -0.023580   0.007732  -0.009522   0.357570   0.357425
    13  C    0.012171  -0.006538  -0.000247   0.005838   0.006109  -0.000274
    14  C    0.000054   0.000283   0.000007  -0.000032   0.000039   0.000000
    15  C    0.000001   0.000014   0.000000   0.000014   0.000008   0.000000
    16  C    0.000000   0.000000   0.000000  -0.000017   0.000000   0.000000
    17  C    0.000019  -0.000074   0.000000   0.000026  -0.000051   0.000007
    18  C    0.000000   0.000000   0.000000   0.000000   0.000000   0.000000
    19  C    0.000000   0.000001   0.000000   0.000000   0.000000   0.000000
    20  C    0.000000   0.000000   0.000000   0.000000   0.000000   0.000000
    21  C    0.000000   0.000000   0.000000   0.000023   0.000000   0.000000
    22  C    0.000000   0.000000   0.000000   0.000000   0.000000   0.000000
    23  H    0.000069  -0.000059   0.000020   0.001023   0.000113  -0.000002
    24  H    0.004232   0.000065  -0.003948   0.004703   0.000226   0.000041
    25  H    0.514495  -0.014765   0.000041   0.000224   0.004569  -0.003807
    26  H   -0.014765   0.428024  -0.000002   0.000109   0.001123  -0.000086
    27  H    0.000041  -0.000002   0.514305  -0.032899  -0.000170  -0.000072
    28  H    0.000224   0.000109  -0.032899   0.606652   0.011846  -0.000168
    29  H    0.004569   0.001123  -0.000170   0.011846   0.596196  -0.031391
    30  H   -0.003807  -0.000086  -0.000072  -0.000168  -0.031391   0.508106
    31  H    0.000030  -0.000083  -0.004846   0.000376   0.000323  -0.004773
    32  H    0.000000   0.000000   0.000000   0.000001   0.000000   0.000000
    33  H    0.000000   0.000000   0.000000   0.000000   0.000000   0.000000
    34  H    0.000000  -0.000041   0.000000   0.000000   0.000000   0.000000
    35  H    0.000000   0.000000   0.000000   0.000000   0.000000   0.000000
    36  H    0.000000   0.000000   0.000000   0.000000   0.000000   0.000000
    37  H    0.000000   0.000000  -0.000001   0.000060   0.000000   0.000000
    38  H    0.000000   0.000000   0.000000   0.000000   0.000000   0.000000
    39  H    0.000000   0.000000   0.000000   0.000000   0.000000   0.000000
              31         32         33         34         35         36
     1  O    0.000000   0.000000   0.000000   0.009354  -0.000058   0.000000
     2  O    0.000000   0.000000   0.000000   0.000001   0.000336   0.000000
     3  O    0.000000   0.000000  -0.000005   0.000000   0.012927   0.000001
     4  N   -0.000344  -0.000050   0.000000   0.000003   0.000000   0.000000
     5  N    0.320335   0.000000   0.000000   0.000000   0.000000   0.000000
     6  N    0.000000  -0.039297  -0.039968  -0.000184  -0.037429  -0.003273
     7  N   -0.000001   0.011557  -0.000215  -0.001330  -0.000040   0.000175
     8  N   -0.000001   0.000010   0.000001  -0.033879  -0.000001   0.000000
     9  C    0.005411  -0.000108  -0.000001   0.000003   0.000000  -0.000002
    10  C    0.005507   0.000002   0.000000   0.000166   0.000000   0.000000
    11  C   -0.038225  -0.000001   0.000000   0.000000   0.000000   0.000000
    12  C   -0.038062   0.000000   0.000000  -0.000003   0.000000   0.000000
    13  C    0.000053   0.001553  -0.000051   0.001537  -0.000010   0.000027
    14  C    0.000000  -0.006275   0.006289  -0.002692  -0.000645   0.000191
    15  C    0.000000   0.000316   0.000170  -0.049077  -0.002238  -0.000034
    16  C    0.000000   0.376263   0.362840   0.000007  -0.001790  -0.036308
    17  C    0.000000   0.000023   0.000020   0.330860  -0.000010   0.000001
    18  C    0.000000   0.002145   0.000895  -0.000192   0.322184   0.003769
    19  C    0.000000  -0.000046  -0.000062   0.003486   0.003338  -0.000002
    20  C    0.000000  -0.000096   0.000024   0.002306  -0.014452  -0.000005
    21  C    0.000000  -0.035583  -0.042264  -0.000001   0.000028   0.372698
    22  C    0.000000   0.000006   0.000033   0.000012  -0.008166   0.000017
    23  H   -0.000092   0.000520   0.000003   0.000000   0.000000   0.000004
    24  H    0.000044   0.000003   0.000000   0.000000   0.000000   0.000000
    25  H    0.000030   0.000000   0.000000   0.000000   0.000000   0.000000
    26  H   -0.000083   0.000000   0.000000  -0.000041   0.000000   0.000000
    27  H   -0.004846   0.000000   0.000000   0.000000   0.000000   0.000000
    28  H    0.000376   0.000001   0.000000   0.000000   0.000000   0.000000
    29  H    0.000323   0.000000   0.000000   0.000000   0.000000   0.000000
    30  H   -0.004773   0.000000   0.000000   0.000000   0.000000   0.000000
    31  H    0.462190   0.000000   0.000000   0.000000   0.000000   0.000000
    32  H    0.000000   0.470287  -0.026882   0.000000   0.000178   0.003042
    33  H    0.000000  -0.026882   0.526787   0.000000   0.001574  -0.003503
    34  H    0.000000   0.000000   0.000000   0.463724   0.000000   0.000000
    35  H    0.000000   0.000178   0.001574   0.000000   0.439462  -0.000125
    36  H    0.000000   0.003042  -0.003503   0.000000  -0.000125   0.485420
    37  H    0.000000  -0.003566   0.003092   0.000000   0.000001  -0.020268
    38  H    0.000000  -0.001271  -0.001166   0.000000   0.000005  -0.019824
    39  H    0.000000   0.000000   0.000000   0.000000   0.000000   0.000000
              37         38         39
     1  O    0.000000   0.000000   0.000373
     2  O    0.000000   0.000000   0.245643
     3  O    0.000000   0.000000   0.003104
     4  N   -0.000024   0.000000   0.000000
     5  N    0.000000   0.000000   0.000000
     6  N   -0.003976   0.004396   0.000002
     7  N    0.001319  -0.000115   0.000000
     8  N    0.000012   0.000000   0.000000
     9  C   -0.000053  -0.000001   0.000000
    10  C    0.000002   0.000000   0.000000
    11  C    0.000063   0.000000   0.000000
    12  C   -0.000001   0.000000   0.000000
    13  C   -0.000052  -0.000010   0.000000
    14  C    0.006811   0.000028   0.000001
    15  C    0.000297   0.000001   0.000064
    16  C   -0.037702  -0.028208   0.000000
    17  C    0.000045   0.000000  -0.000001
    18  C   -0.000406  -0.000022  -0.000387
    19  C    0.000008   0.000000   0.001654
    20  C   -0.000013   0.000003   0.005283
    21  C    0.374322   0.370568   0.000000
    22  C    0.000000   0.000000  -0.028867
    23  H    0.000082  -0.000010   0.000000
    24  H    0.000002   0.000000   0.000000
    25  H    0.000000   0.000000   0.000000
    26  H    0.000000   0.000000   0.000000
    27  H   -0.000001   0.000000   0.000000
    28  H    0.000060   0.000000   0.000000
    29  H    0.000000   0.000000   0.000000
    30  H    0.000000   0.000000   0.000000
    31  H    0.000000   0.000000   0.000000
    32  H   -0.003566  -0.001271   0.000000
    33  H    0.003092  -0.001166   0.000000
    34  H    0.000000   0.000000   0.000000
    35  H    0.000001   0.000005   0.000000
    36  H   -0.020268  -0.019824   0.000000
    37  H    0.458903  -0.018989   0.000000
    38  H   -0.018989   0.476368   0.000000
    39  H    0.000000   0.000000   0.367813
 Mulliken charges:
               1
     1  O   -0.280005
     2  O   -0.452768
     3  O   -0.345202
     4  N   -0.186778
     5  N   -0.369769
     6  N   -0.200603
     7  N   -0.154879
     8  N   -0.126097
     9  C   -0.331719
    10  C   -0.332177
    11  C   -0.367656
    12  C   -0.373154
    13  C    0.104776
    14  C    0.150189
    15  C    0.157337
    16  C   -0.303129
    17  C   -0.343467
    18  C   -0.273373
    19  C    0.176603
    20  C    0.100291
    21  C   -0.636643
    22  C    0.206292
    23  H    0.243918
    24  H    0.230664
    25  H    0.226653
    26  H    0.272411
    27  H    0.215030
    28  H    0.187818
    29  H    0.193213
    30  H    0.217931
    31  H    0.292158
    32  H    0.247270
    33  H    0.212390
    34  H    0.275938
    35  H    0.284932
    36  H    0.218000
    37  H    0.240034
    38  H    0.218249
    39  H    0.405320
 Sum of Mulliken charges =   0.00000
 Mulliken charges with hydrogens summed into heavy atoms:
               1
     1  O   -0.280005
     2  O   -0.047448
     3  O   -0.345202
     4  N   -0.186778
     5  N   -0.077611
     6  N   -0.200603
     7  N   -0.154879
     8  N   -0.126097
     9  C    0.142863
    10  C    0.166887
    11  C    0.035193
    12  C    0.037990
    13  C    0.104776
    14  C    0.150189
    15  C    0.157337
    16  C    0.156531
    17  C   -0.067530
    18  C    0.011559
    19  C    0.176603
    20  C    0.100291
    21  C    0.039640
    22  C    0.206292
 Electronic spatial extent (au):  <R**2>=           8404.4184
 Charge=              0.0000 electrons
 Dipole moment (field-independent basis, Debye):
    X=              5.7616    Y=              5.1325    Z=              0.5288  Tot=              7.7342
 Quadrupole moment (field-independent basis, Debye-Ang):
   XX=           -127.2590   YY=           -128.8939   ZZ=           -125.7303
   XY=             -3.7663   XZ=              7.7242   YZ=              0.1318
 Traceless Quadrupole moment (field-independent basis, Debye-Ang):
   XX=              0.0354   YY=             -1.5995   ZZ=              1.5641
   XY=             -3.7663   XZ=              7.7242   YZ=              0.1318
 Octapole moment (field-independent basis, Debye-Ang**2):
  XXX=             72.9267  YYY=             59.9307  ZZZ=              2.9564  XYY=             46.0453
  XXY=            -28.2933  XXZ=             52.0169  XZZ=              3.0073  YZZ=              2.0009
  YYZ=             -5.9492  XYZ=             -0.4321
 Hexadecapole moment (field-independent basis, Debye-Ang**3):
 XXXX=          -7883.9270 YYYY=          -1940.7605 ZZZZ=           -308.4868 XXXY=            378.8392
 XXXZ=            239.4505 YYYX=            -86.0970 YYYZ=            -11.1324 ZZZX=             -6.4928
 ZZZY=             -4.8107 XXYY=          -1827.6739 XXZZ=          -1404.3078 YYZZ=           -383.1772
 XXYZ=              4.9797 YYXZ=             19.5016 ZZXY=              6.6419
 N-N= 1.805106285768D+03 E-N=-6.041743855051D+03  KE= 1.037339259717D+03
 PrsmSu:  requested number of processors reduced to:   9 ShMem   1 Linda.
   1 Symmetry operations used in ECPInt.
 ECPInt:  NShTT=   10440 NPrTT=   80068 LenC2=    9430 LenP2D=   40940.
 LDataN:  DoStor=T MaxTD1= 3 Len=   28
 Number of processors reduced to   9 by ecpmxn.
 Calling FoFJK, ICntrl=      2127 FMM=F ISym2X=0 I1Cent= 0 IOpClX= 0 NMat=1 NMatS=1 NMatT=0.
 CoulSu:  requested number of processors reduced to:  19 ShMem   1 Linda.
 ***** Axes restored to original set *****
 -------------------------------------------------------------------
 Center     Atomic                   Forces (Hartrees/Bohr)
 Number     Number              X              Y              Z
 -------------------------------------------------------------------
      1        8          -0.002162882   -0.008006555    0.001211477
      2        8          -0.016224410    0.010091841    0.000100083
      3        8          -0.008007614    0.007906068   -0.000287065
      4        7           0.008935277    0.001392086   -0.000776907
      5        7          -0.006085004    0.000327396    0.011671936
      6        7           0.001677802    0.006424776   -0.000640870
      7        7           0.002418335    0.001434765   -0.000542361
      8        7           0.001245589   -0.001194764    0.000156591
      9        6           0.001838281   -0.005754430    0.006334553
     10        6          -0.000184352    0.006875198    0.005000046
     11        6           0.001911006   -0.004889157   -0.008675951
     12        6           0.000087226    0.003247431   -0.009518148
     13        6          -0.000378230   -0.000671773    0.000045714
     14        6          -0.001607150    0.003271603    0.000089338
     15        6          -0.005292426   -0.001209671    0.000491390
     16        6          -0.001690531   -0.004415625    0.006912754
     17        6           0.001905443   -0.004568985    0.000372268
     18        6           0.007077977    0.007303136   -0.001311271
     19        6           0.004488867    0.008566294   -0.001462323
     20        6          -0.006780959   -0.006381622    0.001389713
     21        6          -0.002425747   -0.002403048   -0.007298364
     22        6           0.008617067   -0.014971117    0.001095016
     23        1          -0.000550651    0.002497741   -0.000947619
     24        1          -0.000176902    0.000452367   -0.001534976
     25        1          -0.000009827   -0.000810642   -0.001390916
     26        1           0.000906894   -0.002038387   -0.000661032
     27        1          -0.000258932    0.000277591    0.000445943
     28        1           0.000452841   -0.000576228    0.001765036
     29        1           0.000272971    0.000988558    0.001476256
     30        1          -0.000241769   -0.000197593    0.000483553
     31        1          -0.001534505   -0.000669787   -0.004159704
     32        1           0.000987341    0.000980530   -0.001600034
     33        1          -0.000377231    0.000958577   -0.001226601
     34        1           0.000714672   -0.002319179    0.000225726
     35        1          -0.000879802    0.003305874   -0.000057769
     36        1          -0.000169596    0.000226670    0.000863603
     37        1           0.001033683    0.000044285    0.001483781
     38        1          -0.000047322   -0.000479760    0.000725347
     39        1           0.010514570   -0.005014466   -0.000248212
 -------------------------------------------------------------------
 Cartesian Forces:  Max     0.016224410 RMS     0.004365559

 GradGradGradGradGradGradGradGradGradGradGradGradGradGradGradGradGradGrad
 Berny optimization.
 FormGI is forming the generalized inverse of G from B-inverse, IUseBI=4.
 Internal  Forces:  Max     0.012193260 RMS     0.002355990
 Search for a local minimum.
 Step number   1 out of a maximum of  226
 All quantities printed in internal units (Hartrees-Bohrs-Radians)
 Mixed Optimization -- RFO/linear search
 Second derivative matrix not updated -- first step.
 ITU=  0
     Eigenvalues ---    0.00259   0.00496   0.00571   0.00834   0.00941
     Eigenvalues ---    0.01127   0.01147   0.01261   0.01276   0.01447
     Eigenvalues ---    0.01490   0.01602   0.01735   0.01925   0.01985
     Eigenvalues ---    0.02020   0.02081   0.02149   0.02180   0.02214
     Eigenvalues ---    0.02291   0.02299   0.02334   0.02366   0.02864
     Eigenvalues ---    0.04230   0.04233   0.04798   0.04861   0.05234
     Eigenvalues ---    0.05459   0.05579   0.05712   0.05723   0.06200
     Eigenvalues ---    0.06316   0.07085   0.08257   0.08476   0.08534
     Eigenvalues ---    0.08846   0.08872   0.09243   0.09342   0.11677
     Eigenvalues ---    0.12396   0.12631   0.15925   0.16000   0.16000
     Eigenvalues ---    0.16000   0.16000   0.16000   0.16000   0.16174
     Eigenvalues ---    0.22025   0.22787   0.23293   0.23484   0.24915
     Eigenvalues ---    0.24983   0.24997   0.25000   0.25000   0.25000
     Eigenvalues ---    0.25000   0.25000   0.25000   0.25000   0.25000
     Eigenvalues ---    0.27290   0.28551   0.28671   0.32355   0.32585
     Eigenvalues ---    0.33068   0.33125   0.33403   0.34141   0.34146
     Eigenvalues ---    0.34198   0.34247   0.34271   0.34295   0.34324
     Eigenvalues ---    0.34482   0.34506   0.34605   0.34765   0.34780
     Eigenvalues ---    0.34892   0.34958   0.34994   0.35439   0.35540
[...]
    33  H   -0.000216   0.000001  -0.000001   0.000000   0.000000   0.000000
    34  H   -0.001290  -0.034913   0.000005   0.000138   0.000000  -0.000003
    35  H   -0.000043  -0.000001   0.000000   0.000000   0.000000   0.000000
    36  H    0.000176   0.000000  -0.000001   0.000000  -0.000001   0.000000
    37  H    0.001048   0.000011  -0.000082   0.000002   0.000121  -0.000001
    38  H   -0.000111   0.000000  -0.000002   0.000000   0.000001   0.000000
    39  H    0.000000   0.000000   0.000000   0.000000   0.000000   0.000000
              13         14         15         16         17         18
     1  O   -0.000076  -0.000645  -0.086522   0.000006  -0.010721   0.001675
     2  O    0.000000  -0.000077  -0.000921   0.000001   0.000037  -0.005158
     3  O    0.000000  -0.000087  -0.000397   0.000225   0.000004   0.005098
     4  N    0.210634  -0.000059  -0.005677   0.000217   0.000260   0.000053
     5  N   -0.003183  -0.000003   0.000000   0.000001   0.000006   0.000000
     6  N   -0.009272   0.181237  -0.061320   0.236338   0.003213   0.390372
     7  N    0.481094   0.465921  -0.026450   0.002725  -0.047388  -0.006561
     8  N    0.475548  -0.057397  -0.011156   0.000155   0.470542  -0.000494
     9  C   -0.086613   0.001624  -0.000327   0.000387  -0.000472   0.000017
    10  C   -0.091597  -0.001028  -0.000065  -0.000003   0.002504   0.000000
    11  C   -0.013771   0.000187  -0.000091   0.000020  -0.000138   0.000002
    12  C   -0.015170  -0.000191  -0.000105   0.000000   0.000413   0.000000
    13  C    5.501412  -0.288779  -0.039968  -0.002151  -0.235926  -0.001574
    14  C   -0.288779   5.679047   0.202586  -0.038588  -0.088550  -0.152566
    15  C   -0.039968   0.202586   5.658477   0.002800   0.269100   0.025920
    16  C   -0.002151  -0.038588   0.002800   5.233399  -0.000126  -0.044904
    17  C   -0.235926  -0.088550   0.269100  -0.000126   5.693864   0.004150
    18  C   -0.001574  -0.152566   0.025920  -0.044904   0.004150   5.536076
    19  C   -0.005332  -0.040795   0.122312   0.000653  -0.032859  -0.093909
    20  C   -0.001547   0.001820  -0.131502   0.003031  -0.019984   0.298855
    21  C    0.000429  -0.019906  -0.002100   0.279556  -0.000102  -0.003119
    22  C   -0.000042   0.003195  -0.028406   0.000436  -0.000178  -0.016661
    23  H   -0.008544   0.000578   0.000041  -0.000251   0.000076  -0.000001
    24  H    0.013185  -0.000009   0.000011  -0.000015   0.000045   0.000000
    25  H    0.013930   0.000056   0.000002   0.000000  -0.000003   0.000000
    26  H   -0.007563   0.000219   0.000023   0.000000   0.000348   0.000000
    27  H   -0.000333   0.000009   0.000000   0.000001  -0.000001   0.000000
    28  H    0.008386  -0.000039   0.000026  -0.000044   0.000050   0.000000
    29  H    0.008597   0.000075   0.000012   0.000000  -0.000081   0.000000
    30  H   -0.000394  -0.000001   0.000000   0.000000   0.000009   0.000000
    31  H    0.000073   0.000000   0.000000   0.000000   0.000000   0.000000
    32  H    0.001551  -0.006271   0.000339   0.375260   0.000024   0.002284
    33  H   -0.000049   0.006449   0.000170   0.363345   0.000019  -0.000093
    34  H    0.001579  -0.002628  -0.048944   0.000007   0.331877  -0.000169
    35  H   -0.000012  -0.000682  -0.002053  -0.001377  -0.000006   0.322392
    36  H    0.000025   0.000013  -0.000036  -0.036695   0.000001   0.004632
    37  H   -0.000034   0.006901   0.000295  -0.037215   0.000041  -0.000502
    38  H   -0.000010   0.000011   0.000001  -0.028046   0.000000  -0.000048
    39  H    0.000000   0.000001   0.000049   0.000000  -0.000001  -0.000297
              19         20         21         22         23         24
     1  O    0.660552  -0.064878  -0.000001  -0.007618   0.000000   0.000000
     2  O    0.003366  -0.030159   0.000000   0.257452   0.000000   0.000000
     3  O   -0.003281  -0.062565   0.000002   0.586406   0.000000   0.000000
     4  N   -0.000173  -0.000025  -0.000020   0.000000  -0.031209  -0.052242
     5  N    0.000000   0.000000   0.000000   0.000000   0.003280   0.002330
     6  N   -0.002258  -0.063289  -0.063313   0.007902  -0.000060  -0.000001
     7  N   -0.001881  -0.003183  -0.005599  -0.000020   0.013784  -0.000464
     8  N   -0.000395  -0.000044  -0.000076   0.000006   0.000296   0.000074
     9  C   -0.000006   0.000000   0.000074   0.000000   0.351161   0.348879
    10  C    0.000017   0.000001   0.000001   0.000000   0.005285  -0.005852
    11  C   -0.000001   0.000000   0.000036   0.000000  -0.025168  -0.040637
    12  C   -0.000004   0.000000   0.000000   0.000000  -0.000343  -0.002694
    13  C   -0.005332  -0.001547   0.000429  -0.000042  -0.008544   0.013185
    14  C   -0.040795   0.001820  -0.019906   0.003195   0.000578  -0.000009
    15  C    0.122312  -0.131502  -0.002100  -0.028406   0.000041   0.000011
    16  C    0.000653   0.003031   0.279556   0.000436  -0.000251  -0.000015
    17  C   -0.032859  -0.019984  -0.000102  -0.000178   0.000076   0.000045
    18  C   -0.093909   0.298855  -0.003119  -0.016661  -0.000001   0.000000
    19  C    5.245764   0.010844   0.000107  -0.041537   0.000001   0.000000
    20  C    0.010844   5.902156  -0.000193   0.066275   0.000001   0.000000
    21  C    0.000107  -0.000193   5.412635  -0.000029   0.000159   0.000004
    22  C   -0.041537   0.066275  -0.000029   5.002153   0.000000   0.000000
    23  H    0.000001   0.000001   0.000159   0.000000   0.464124  -0.017275
    24  H    0.000000   0.000000   0.000004   0.000000  -0.017275   0.519143
    25  H    0.000000   0.000000   0.000000   0.000000   0.000128   0.004679
    26  H    0.000001   0.000000   0.000000   0.000000  -0.000057   0.000112
    27  H    0.000000   0.000000   0.000001   0.000000   0.000092  -0.003994
    28  H    0.000000   0.000000   0.000050   0.000000   0.001082   0.004803
    29  H    0.000000   0.000000   0.000000   0.000000   0.000099   0.000231
    30  H    0.000000   0.000000   0.000000   0.000000  -0.000001   0.000045
    31  H    0.000000   0.000000   0.000000   0.000000  -0.000087   0.000051
    32  H   -0.000045  -0.000107  -0.035188   0.000005   0.000549   0.000004
    33  H   -0.000056   0.000135  -0.042851   0.000029   0.000003   0.000000
    34  H    0.003865   0.001989  -0.000001   0.000008   0.000000   0.000000
    35  H    0.003185  -0.014399  -0.000248  -0.007194   0.000000   0.000000
    36  H   -0.000003   0.000022   0.373079   0.000020   0.000004   0.000000
    37  H    0.000008  -0.000014   0.373907   0.000000   0.000068   0.000002
    38  H    0.000000   0.000002   0.370878   0.000000  -0.000008   0.000000
    39  H    0.001313   0.005261   0.000000  -0.029111   0.000000   0.000000
              25         26         27         28         29         30
     1  O    0.000000   0.000000   0.000000   0.000000   0.000000   0.000000
     2  O    0.000000   0.000000   0.000000   0.000000   0.000000   0.000000
     3  O    0.000000   0.000000   0.000000   0.000000   0.000000   0.000000
     4  N   -0.052569  -0.030701   0.005143  -0.004290  -0.004128   0.005021
     5  N    0.001929   0.002916  -0.035160  -0.075289  -0.075556  -0.034630
     6  N    0.000000   0.000001   0.000000   0.000001   0.000000   0.000000
     7  N    0.000144   0.000381   0.000046  -0.001041  -0.000050  -0.000003
     8  N   -0.000495   0.015133  -0.000002  -0.000070  -0.000974   0.000038
     9  C   -0.006470   0.005418  -0.019529  -0.058764  -0.000314  -0.001194
    10  C    0.349107   0.353105  -0.001200  -0.000373  -0.057083  -0.020060
    11  C   -0.002633  -0.000334   0.359080   0.359323  -0.007372   0.007506
    12  C   -0.041143  -0.024851   0.007333  -0.006377   0.363666   0.360659
    13  C    0.013930  -0.007563  -0.000333   0.008386   0.008597  -0.000394
    14  C    0.000056   0.000219   0.000009  -0.000039   0.000075  -0.000001
    15  C    0.000002   0.000023   0.000000   0.000026   0.000012   0.000000
    16  C    0.000000   0.000000   0.000001  -0.000044   0.000000   0.000000
    17  C   -0.000003   0.000348  -0.000001   0.000050  -0.000081   0.000009
    18  C    0.000000   0.000000   0.000000   0.000000   0.000000   0.000000
    19  C    0.000000   0.000001   0.000000   0.000000   0.000000   0.000000
    20  C    0.000000   0.000000   0.000000   0.000000   0.000000   0.000000
    21  C    0.000000   0.000000   0.000001   0.000050   0.000000   0.000000
    22  C    0.000000   0.000000   0.000000   0.000000   0.000000   0.000000
    23  H    0.000128  -0.000057   0.000092   0.001082   0.000099  -0.000001
    24  H    0.004679   0.000112  -0.003994   0.004803   0.000231   0.000045
    25  H    0.522452  -0.015449   0.000045   0.000229   0.004646  -0.003856
    26  H   -0.015449   0.431586  -0.000001   0.000095   0.001086  -0.000014
    27  H    0.000045  -0.000001   0.513039  -0.032739  -0.000172  -0.000065
    28  H    0.000229   0.000095  -0.032739   0.609558   0.010262  -0.000171
    29  H    0.004646   0.001086  -0.000172   0.010262   0.594702  -0.030967
    30  H   -0.003856  -0.000014  -0.000065  -0.000171  -0.030967   0.507041
    31  H    0.000033  -0.000079  -0.005169   0.000831   0.000752  -0.005115
    32  H    0.000000   0.000000   0.000000   0.000003   0.000000   0.000000
    33  H    0.000000   0.000000   0.000000   0.000000   0.000000   0.000000
    34  H    0.000000  -0.000032   0.000000   0.000000   0.000001   0.000000
    35  H    0.000000   0.000000   0.000000   0.000000   0.000000   0.000000
    36  H    0.000000   0.000000   0.000000   0.000001   0.000000   0.000000
    37  H    0.000000   0.000000  -0.000004   0.000187   0.000000   0.000000
    38  H    0.000000   0.000000   0.000000   0.000000   0.000000   0.000000
    39  H    0.000000   0.000000   0.000000   0.000000   0.000000   0.000000
              31         32         33         34         35         36
     1  O    0.000000   0.000000   0.000000   0.008152  -0.000056   0.000000
     2  O    0.000000   0.000000   0.000000   0.000000   0.000315   0.000000
     3  O    0.000000   0.000000  -0.000004   0.000000   0.012249   0.000001
     4  N   -0.000423  -0.000053   0.000000   0.000008   0.000000   0.000000
     5  N    0.324446   0.000000   0.000000   0.000000   0.000000   0.000000
     6  N    0.000000  -0.038483  -0.040260  -0.000174  -0.038516  -0.003813
     7  N   -0.000001   0.012026  -0.000216  -0.001290  -0.000043   0.000176
     8  N   -0.000001   0.000012   0.000001  -0.034913  -0.000001   0.000000
     9  C    0.005147  -0.000100  -0.000001   0.000005   0.000000  -0.000001
    10  C    0.005265   0.000002   0.000000   0.000138   0.000000   0.000000
    11  C   -0.035980  -0.000012   0.000000   0.000000   0.000000  -0.000001
    12  C   -0.035610   0.000000   0.000000  -0.000003   0.000000   0.000000
    13  C    0.000073   0.001551  -0.000049   0.001579  -0.000012   0.000025
    14  C    0.000000  -0.006271   0.006449  -0.002628  -0.000682   0.000013
    15  C    0.000000   0.000339   0.000170  -0.048944  -0.002053  -0.000036
    16  C    0.000000   0.375260   0.363345   0.000007  -0.001377  -0.036695
    17  C    0.000000   0.000024   0.000019   0.331877  -0.000006   0.000001
    18  C    0.000000   0.002284  -0.000093  -0.000169   0.322392   0.004632
    19  C    0.000000  -0.000045  -0.000056   0.003865   0.003185  -0.000003
    20  C    0.000000  -0.000107   0.000135   0.001989  -0.014399   0.000022
    21  C    0.000000  -0.035188  -0.042851  -0.000001  -0.000248   0.373079
    22  C    0.000000   0.000005   0.000029   0.000008  -0.007194   0.000020
    23  H   -0.000087   0.000549   0.000003   0.000000   0.000000   0.000004
    24  H    0.000051   0.000004   0.000000   0.000000   0.000000   0.000000
    25  H    0.000033   0.000000   0.000000   0.000000   0.000000   0.000000
    26  H   -0.000079   0.000000   0.000000  -0.000032   0.000000   0.000000
    27  H   -0.005169   0.000000   0.000000   0.000000   0.000000   0.000000
    28  H    0.000831   0.000003   0.000000   0.000000   0.000000   0.000001
    29  H    0.000752   0.000000   0.000000   0.000001   0.000000   0.000000
    30  H   -0.005115   0.000000   0.000000   0.000000   0.000000   0.000000
    31  H    0.445542   0.000000   0.000000   0.000000   0.000000   0.000000
    32  H    0.000000   0.469796  -0.027366   0.000000   0.000185   0.003062
    33  H    0.000000  -0.027366   0.526740   0.000000   0.001617  -0.003604
    34  H    0.000000   0.000000   0.000000   0.465556   0.000000   0.000000
    35  H    0.000000   0.000185   0.001617   0.000000   0.441021  -0.000171
    36  H    0.000000   0.003062  -0.003604   0.000000  -0.000171   0.486248
    37  H    0.000000  -0.003600   0.003104   0.000000   0.000005  -0.020801
    38  H    0.000000  -0.001287  -0.001285   0.000000   0.000008  -0.020135
    39  H    0.000000   0.000000   0.000000   0.000000   0.000000   0.000000
              37         38         39
     1  O    0.000000   0.000000   0.000303
     2  O    0.000000   0.000000   0.249895
     3  O    0.000000   0.000000   0.002909
     4  N   -0.000022   0.000000   0.000000
     5  N   -0.000001   0.000000   0.000000
     6  N   -0.003970   0.004609   0.000001
     7  N    0.001048  -0.000111   0.000000
     8  N    0.000011   0.000000   0.000000
     9  C   -0.000082  -0.000002   0.000000
    10  C    0.000002   0.000000   0.000000
    11  C    0.000121   0.000001   0.000000
    12  C   -0.000001   0.000000   0.000000
    13  C   -0.000034  -0.000010   0.000000
    14  C    0.006901   0.000011   0.000001
    15  C    0.000295   0.000001   0.000049
    16  C   -0.037215  -0.028046   0.000000
    17  C    0.000041   0.000000  -0.000001
    18  C   -0.000502  -0.000048  -0.000297
    19  C    0.000008   0.000000   0.001313
    20  C   -0.000014   0.000002   0.005261
    21  C    0.373907   0.370878   0.000000
    22  C    0.000000   0.000000  -0.029111
    23  H    0.000068  -0.000008   0.000000
    24  H    0.000002   0.000000   0.000000
    25  H    0.000000   0.000000   0.000000
    26  H    0.000000   0.000000   0.000000
    27  H   -0.000004   0.000000   0.000000
    28  H    0.000187   0.000000   0.000000
    29  H    0.000000   0.000000   0.000000
    30  H    0.000000   0.000000   0.000000
    31  H    0.000000   0.000000   0.000000
    32  H   -0.003600  -0.001287   0.000000
    33  H    0.003104  -0.001285   0.000000
    34  H    0.000000   0.000000   0.000000
    35  H    0.000005   0.000008   0.000000
    36  H   -0.020801  -0.020135   0.000000
    37  H    0.461943  -0.019322   0.000000
    38  H   -0.019322   0.475437   0.000000
    39  H    0.000000   0.000000   0.361543
 Mulliken charges:
               1
     1  O   -0.285431
     2  O   -0.451891
     3  O   -0.353331
     4  N   -0.176054
     5  N   -0.378188
     6  N   -0.195800
     7  N   -0.148755
     8  N   -0.117435
     9  C   -0.339681
    10  C   -0.339950
    11  C   -0.358795
    12  C   -0.364840
    13  C    0.095497
    14  C    0.148372
    15  C    0.163876
    16  C   -0.309147
    17  C   -0.340046
    18  C   -0.265468
    19  C    0.170546
    20  C    0.101495
    21  C   -0.638171
    22  C    0.206909
    23  H    0.242195
    24  H    0.229584
    25  H    0.225239
    26  H    0.268659
    27  H    0.213581
    28  H    0.184312
    29  H    0.192568
    30  H    0.216153
    31  H    0.300326
    32  H    0.247409
    33  H    0.214170
    34  H    0.274970
    35  H    0.283781
    36  H    0.217977
    37  H    0.237925
    38  H    0.219308
    39  H    0.408132
 Sum of Mulliken charges =   0.00000
 Mulliken charges with hydrogens summed into heavy atoms:
               1
     1  O   -0.285431
     2  O   -0.043759
     3  O   -0.353331
     4  N   -0.176054
     5  N   -0.077862
     6  N   -0.195800
     7  N   -0.148755
     8  N   -0.117435
     9  C    0.132099
    10  C    0.153948
    11  C    0.039097
    12  C    0.043881
    13  C    0.095497
    14  C    0.148372
    15  C    0.163876
    16  C    0.152431
    17  C   -0.065076
    18  C    0.018313
    19  C    0.170546
    20  C    0.101495
    21  C    0.037040
    22  C    0.206909
 Electronic spatial extent (au):  <R**2>=           8292.2781
 Charge=              0.0000 electrons
 Dipole moment (field-independent basis, Debye):
    X=              5.8962    Y=              5.0864    Z=              0.4482  Tot=              7.7999
 Quadrupole moment (field-independent basis, Debye-Ang):
   XX=           -126.8258   YY=           -129.1116   ZZ=           -125.3572
   XY=             -3.3992   XZ=              6.7923   YZ=             -0.3158
 Traceless Quadrupole moment (field-independent basis, Debye-Ang):
   XX=              0.2724   YY=             -2.0134   ZZ=              1.7410
   XY=             -3.3992   XZ=              6.7923   YZ=             -0.3158
 Octapole moment (field-independent basis, Debye-Ang**2):
  XXX=             72.0589  YYY=             60.1084  ZZZ=              5.7116  XYY=             46.2805
  XXY=            -31.4764  XXZ=             47.2827  XZZ=              6.0374  YZZ=              2.6602
  YYZ=             -5.6768  XYZ=              1.5276
 Hexadecapole moment (field-independent basis, Debye-Ang**3):
 XXXX=          -7695.6630 YYYY=          -1938.8480 ZZZZ=           -350.3535 XXXY=            381.6219
 XXXZ=            169.2055 YYYX=            -83.1725 YYYZ=            -12.6319 ZZZX=              0.2279
 ZZZY=             -5.8106 XXYY=          -1802.4665 XXZZ=          -1347.9217 YYZZ=           -388.5186
 XXYZ=             -6.1149 YYXZ=             23.5882 ZZXY=             10.2636
 N-N= 1.808192502283D+03 E-N=-6.047814016010D+03  KE= 1.037252096829D+03
 1\1\GINC-NODE043\FOpt\RM06\LANL2DZ\C14H17N5O3\SUPERCOMPUTO1\21-Jul-202
 0\0\\#opt M06/lanl2dz integral=ultrafine geom=connectivity\\Title Card
  Required\\0,1\O,-2.8425095992,-2.4881139075,0.2898663745\O,-5.3115771
 993,-1.2374839977,0.48641496\O,-5.3764732354,1.0184991895,0.2172337332
 \N,3.0152663046,-0.3871356189,-0.6522129335\N,5.4041467588,0.172633511
 7,0.6781950891\N,-1.326822965,1.3290222364,-0.3637092183\N,0.850581715
 8,0.47329134,-0.5045118595\N,1.2706977522,-1.8988960316,-0.2635499155\
 C,3.5911856968,0.9601073474,-0.7453931638\C,4.0137316968,-1.4545030156
 ,-0.493369664\C,4.4069075121,1.2322331325,0.5241544106\C,4.8318986373,
 -1.1727084454,0.7716749072\C,1.685259633,-0.6003483832,-0.4683040788\C
 ,-0.4593804839,0.2359274421,-0.3277225809\C,-0.9918370983,-1.051219249
 ,-0.1072931362\C,-0.793725746,2.6968678384,-0.5526269427\C,-0.03821046
 26,-2.0921172421,-0.0922735615\C,-2.6597475752,1.1266921618,-0.1552500
 008\C,-2.4272001705,-1.320746518,0.1039018462\C,-3.2508219133,-0.09748
 07635,0.070026196\C,-0.3032729396,3.2895808355,0.7672478676\C,-4.71166
 54755,-0.0357441102,0.2573660743\H,2.7850798892,1.6856315864,-0.866967
 443\H,4.257991771,0.9940089596,-1.6165784968\H,4.678149692,-1.43983033
 45,-1.3669012914\H,3.4966009501,-2.4128250495,-0.4337357189\H,4.913538
 6036,2.199267648,0.4391848583\H,3.6999983624,1.2842207231,1.37902396\H
 ,4.1603575294,-1.2908727559,1.6464849492\H,5.6403081324,-1.9056444576,
 0.8592452731\H,6.1333538078,0.3713268043,1.3553879424\H,0.0259405319,2
 .6354662222,-1.2729952187\H,-1.596770098,3.301628518,-0.9872331754\H,-
 0.3848826356,-3.1094323474,0.0711745113\H,-3.2933698603,2.0113823558,-
 0.175537353\H,-1.1106878463,3.3184081719,1.5078458217\H,0.5194287957,2
 .6879501755,1.1682179879\H,0.0584991087,4.3113976416,0.6139953466\H,-6
 .2792235777,-1.108744614,0.5994736435\\Version=ES64L-G09RevD.01\State=
 1-A\HF=-1042.3470336\RMSD=3.776e-09\RMSF=2.512e-06\Dipole=2.3265072,1.
 9954263,0.1503982\Quadrupole=0.3102517,-1.4843503,1.1740986,-2.5381904
 ,5.0589366,-0.2191521\PG=C01 [X(C14H17N5O3)]\\@


 IF THE FACTS DO NOT CONFORM TO THE THEORY, THEY MUST BE DISPOSED OF.
 Job cpu time:       0 days 11 hours 42 minutes 51.8 seconds.
 File lengths (MBytes):  RWF=     36 Int=      0 D2E=      0 Chk=      6 Scr=      1
 Normal termination of Gaussian 09 at Tue Jul 21 06:55:26 2020.
