 Entering Gaussian System, Link 0=g09
 Input=acido_oxolinico.gjf
 Output=acido_oxolinico.log
 Initial command:
 /usr/local/cluster_programs/g09/l1.exe "/tmp/scratch/63987.prometeo/Gau-29381.inp" -scrdir="/tmp/scratch/63987.prometeo/"
 Entering Link 1 = /usr/local/cluster_programs/g09/l1.exe PID=     29382.
  
 Copyright (c) 1988,1990,1992,1993,1995,1998,2003,2009,2013,
            Gaussian, Inc.  All Rights Reserved.
  
 This is part of the Gaussian(R) 09 program.  It is based on
 the Gaussian(R) 03 system (copyright 2003, Gaussian, Inc.),
 the Gaussian(R) 98 system (copyright 1998, Gaussian, Inc.),
 the Gaussian(R) 94 system (copyright 1995, Gaussian, Inc.),
 the Gaussian 92(TM) system (copyright 1992, Gaussian, Inc.),
 the Gaussian 90(TM) system (copyright 1990, Gaussian, Inc.),
 the Gaussian 88(TM) system (copyright 1988, Gaussian, Inc.),
 the Gaussian 86(TM) system (copyright 1986, Carnegie Mellon
 University), and the Gaussian 82(TM) system (copyright 1983,
 Carnegie Mellon University). Gaussian is a federally registered
 trademark of Gaussian, Inc.
  
 This software contains proprietary and confidential information,
 including trade secrets, belonging to Gaussian, Inc.
  
 This software is provided under written license and may be
 used, copied, transmitted, or stored only in accord with that
 written license.
  
 The following legend is applicable only to US Government
 contracts under FAR:
  
                    RESTRICTED RIGHTS LEGEND
  
 Use, reproduction and disclosure by the US Government is
 subject to restrictions as set forth in subparagraphs (a)
 and (c) of the Commercial Computer Software - Restricted
 Rights clause in FAR 52.227-19.
  
 Gaussian, Inc.
 340 Quinnipiac St., Bldg. 40, Wallingford CT 06492
  
  
 ---------------------------------------------------------------
 Warning -- This program may not be used in any manner that
 competes with the business of Gaussian, Inc. or will provide
 assistance to any competitor of Gaussian, Inc.  The licensee
 of this program is prohibited from giving any competitor of
 Gaussian, Inc. access to this program.  By using this program,
 the user acknowledges that Gaussian, Inc. is engaged in the
 business of creating and licensing software in the field of
 computational chemistry and represents and warrants to the
 licensee that it is not a competitor of Gaussian, Inc. and that
 it will not use this program in any manner prohibited above.
 ---------------------------------------------------------------
  

 Cite this work as:
 Gaussian 09, Revision D.01,
 M. J. Frisch, G. W. Trucks, H. B. Schlegel, G. E. Scuseria, 
 M. A. Robb, J. R. Cheeseman, G. Scalmani, V. Barone, B. Mennucci, 
 G. A. Petersson, H. Nakatsuji, M. Caricato, X. Li, H. P. Hratchian, 
 A. F. Izmaylov, J. Bloino, G. Zheng, J. L. Sonnenberg, M. Hada, 
 M. Ehara, K. Toyota, R. Fukuda, J. Hasegawa, M. Ishida, T. Nakajima, 
 Y. Honda, O. Kitao, H. Nakai, T. Vreven, J. A. Montgomery, Jr., 
 J. E. Peralta, F. Ogliaro, M. Bearpark, J. J. Heyd, E. Brothers, 
 K. N. Kudin, V. N. Staroverov, T. Keith, R. Kobayashi, J. Normand, 
 K. Raghavachari, A. Rendell, J. C. Burant, S. S. Iyengar, J. Tomasi, 
 M. Cossi, N. Rega, J. M. Millam, M. Klene, J. E. Knox, J. B. Cross, 
 V. Bakken, C. Adamo, J. Jaramillo, R. Gomperts, R. E. Stratmann, 
 O. Yazyev, A. J. Austin, R. Cammi, C. Pomelli, J. W. Ochterski, 
 R. L. Martin, K. Morokuma, V. G. Zakrzewski, G. A. Voth, 
 P. Salvador, J. J. Dannenberg, S. Dapprich, A. D. Daniels, 
 O. Farkas, J. B. Foresman, J. V. Ortiz, J. Cioslowski, 
 and D. J. Fox, Gaussian, Inc., Wallingford CT, 2013.
 
 ******************************************
 Gaussian 09:  ES64L-G09RevD.01 24-Apr-2013
                 6-Jul-2020 
 ******************************************
 %nprocshared=20
 Will use up to   20 processors via shared memory.
 -----------------------------------
 # opt b3lyp/3-21g geom=connectivity
 -----------------------------------
 1/14=-1,18=20,19=15,26=3,38=1,57=2/1,3;
 2/9=110,12=2,17=6,18=5,40=1/2;
 3/5=5,11=2,16=1,25=1,30=1,71=1,74=-5/1,2,3;
 4//1;
 5/5=2,38=5/2;
 6/7=2,8=2,9=2,10=2,28=1/1;
 7//1,2,3,16;
 1/14=-1,18=20,19=15,26=3/3(2);
 2/9=110/2;
 99//99;
 2/9=110/2;
 3/5=5,11=2,16=1,25=1,30=1,71=1,74=-5/1,2,3;
 4/5=5,16=3,69=1/1;
 5/5=2,38=5/2;
 7//1,2,3,16;
 1/14=-1,18=20,19=15,26=3/3(-5);
 2/9=110/2;
 6/7=2,8=2,9=2,10=2,19=2,28=1/1;
 99/9=1/99;
 -------------------
 Title Card Required
 -------------------
 Symbolic Z-matrix:
 Charge =  0 Multiplicity = 1
 O                    -9.66363   5.9958   -6.74519 
 O                    -9.39274   3.69513  -7.04445 
 O                    -4.3397    2.73747  -7.13571 
 O                    -1.64782   3.22423  -6.87288 
 O                    -1.00405   5.37106  -6.56287 
 N                    -4.8392    6.79462  -6.56277 
 C                    -5.97514   5.98244  -6.69895 
 C                    -5.79608   4.59296  -6.87883 
 C                    -7.27136   6.54739  -6.6484 
 C                    -4.95092   8.25712  -6.44341 
 C                    -8.33117   5.6821   -6.77184 
 C                    -8.16119   4.30494  -6.94895 
 C                    -6.91531   3.74067  -7.00582 
 C                    -3.60582   6.23904  -6.59073 
 C                    -4.454     3.96248  -6.94282 
 C                    -3.34668   4.89844  -6.75907 
 C                    -10.3716   4.74478  -6.92255 
 C                    -5.17794   8.95912  -7.77707 
 C                    -1.91358   4.54737  -6.7224 
 H                    -7.44647   7.61205  -6.52235 
 H                    -5.75327   8.48743  -5.72858 
 H                    -4.01697   8.60635  -5.98429 
 H                    -6.73065   2.67577  -7.14436 
 H                    -2.76593   6.92315  -6.46513 
 H                    -10.9734   4.79939  -7.84335 
 H                    -11.0002   4.56     -6.03764 
 H                    -4.34221   8.76948  -8.46422 
 H                    -6.10295   8.62518  -8.26501 
 H                    -5.24896   10.0438  -7.61839 
 H                    -0.66666   3.15921  -6.81479 
 

 GradGradGradGradGradGradGradGradGradGradGradGradGradGradGradGradGradGrad
 Berny optimization.
 Initialization pass.
                           ----------------------------
                           !    Initial Parameters    !
                           ! (Angstroms and Degrees)  !
 --------------------------                            --------------------------
 ! Name  Definition              Value          Derivative Info.                !
 --------------------------------------------------------------------------------
 ! R1    R(1,11)                 1.3691         estimate D2E/DX2                !
 ! R2    R(1,17)                 1.4484         estimate D2E/DX2                !
 ! R3    R(2,12)                 1.3776         estimate D2E/DX2                !
 ! R4    R(2,17)                 1.4404         estimate D2E/DX2                !
 ! R5    R(3,15)                 1.2454         estimate D2E/DX2                !
 ! R6    R(4,19)                 1.3579         estimate D2E/DX2                !
 ! R7    R(4,30)                 0.985          estimate D2E/DX2                !
 ! R8    R(5,19)                 1.2374         estimate D2E/DX2                !
 ! R9    R(6,7)                  1.403          estimate D2E/DX2                !
 ! R10   R(6,10)                 1.4716         estimate D2E/DX2                !
 ! R11   R(6,14)                 1.353          estimate D2E/DX2                !
 ! R12   R(7,8)                  1.4125         estimate D2E/DX2                !
 ! R13   R(7,9)                  1.4149         estimate D2E/DX2                !
 ! R14   R(8,13)                 1.4125         estimate D2E/DX2                !
 ! R15   R(8,15)                 1.4842         estimate D2E/DX2                !
 ! R16   R(9,11)                 1.3737         estimate D2E/DX2                !
 ! R17   R(9,20)                 1.0863         estimate D2E/DX2                !
 ! R18   R(10,18)                1.5241         estimate D2E/DX2                !
 ! R19   R(10,21)                1.099          estimate D2E/DX2                !
 ! R20   R(10,22)                1.0977         estimate D2E/DX2                !
 ! R21   R(11,12)                1.3989         estimate D2E/DX2                !
 ! R22   R(12,13)                1.3689         estimate D2E/DX2                !
 ! R23   R(13,23)                1.0896         estimate D2E/DX2                !
 ! R24   R(14,16)                1.3758         estimate D2E/DX2                !
 ! R25   R(14,24)                1.0905         estimate D2E/DX2                !
 ! R26   R(15,16)                1.4615         estimate D2E/DX2                !
 ! R27   R(16,19)                1.4759         estimate D2E/DX2                !
 ! R28   R(17,25)                1.1014         estimate D2E/DX2                !
 ! R29   R(17,26)                1.1011         estimate D2E/DX2                !
 ! R30   R(18,27)                1.0984         estimate D2E/DX2                !
 ! R31   R(18,28)                1.0978         estimate D2E/DX2                !
 ! R32   R(18,29)                1.0985         estimate D2E/DX2                !
 ! A1    A(11,1,17)            105.9873         estimate D2E/DX2                !
 ! A2    A(12,2,17)            106.2058         estimate D2E/DX2                !
 ! A3    A(19,4,30)            104.6387         estimate D2E/DX2                !
 ! A4    A(7,6,10)             121.4459         estimate D2E/DX2                !
 ! A5    A(7,6,14)             119.8895         estimate D2E/DX2                !
 ! A6    A(10,6,14)            118.6174         estimate D2E/DX2                !
 ! A7    A(6,7,8)              118.6312         estimate D2E/DX2                !
 ! A8    A(6,7,9)              120.4719         estimate D2E/DX2                !
 ! A9    A(8,7,9)              120.8958         estimate D2E/DX2                !
 ! A10   A(7,8,13)             120.3024         estimate D2E/DX2                !
 ! A11   A(7,8,15)             122.5484         estimate D2E/DX2                !
 ! A12   A(13,8,15)            117.1493         estimate D2E/DX2                !
 ! A13   A(7,9,11)             116.8758         estimate D2E/DX2                !
 ! A14   A(7,9,20)             122.8989         estimate D2E/DX2                !
 ! A15   A(11,9,20)            120.2249         estimate D2E/DX2                !
 ! A16   A(6,10,18)            113.4578         estimate D2E/DX2                !
 ! A17   A(6,10,21)            108.4483         estimate D2E/DX2                !
 ! A18   A(6,10,22)            106.5888         estimate D2E/DX2                !
 ! A19   A(18,10,21)           111.3389         estimate D2E/DX2                !
 ! A20   A(18,10,22)           110.2533         estimate D2E/DX2                !
 ! A21   A(21,10,22)           106.4056         estimate D2E/DX2                !
 ! A22   A(1,11,9)             127.21           estimate D2E/DX2                !
 ! A23   A(1,11,12)            110.2603         estimate D2E/DX2                !
 ! A24   A(9,11,12)            122.5297         estimate D2E/DX2                !
 ! A25   A(2,12,11)            109.6301         estimate D2E/DX2                !
 ! A26   A(2,12,13)            128.9258         estimate D2E/DX2                !
 ! A27   A(11,12,13)           121.4442         estimate D2E/DX2                !
 ! A28   A(8,13,12)            117.9505         estimate D2E/DX2                !
 ! A29   A(8,13,23)            117.8291         estimate D2E/DX2                !
 ! A30   A(12,13,23)           124.2203         estimate D2E/DX2                !
 ! A31   A(6,14,16)            125.055          estimate D2E/DX2                !
 ! A32   A(6,14,24)            116.2382         estimate D2E/DX2                !
 ! A33   A(16,14,24)           118.7065         estimate D2E/DX2                !
 ! A34   A(3,15,8)             120.4995         estimate D2E/DX2                !
 ! A35   A(3,15,16)            125.4425         estimate D2E/DX2                !
 ! A36   A(8,15,16)            114.0577         estimate D2E/DX2                !
 ! A37   A(14,16,15)           119.7833         estimate D2E/DX2                !
 ! A38   A(14,16,19)           114.308          estimate D2E/DX2                !
 ! A39   A(15,16,19)           125.9071         estimate D2E/DX2                !
 ! A40   A(1,17,2)             107.9154         estimate D2E/DX2                !
 ! A41   A(1,17,25)            109.0651         estimate D2E/DX2                !
 ! A42   A(1,17,26)            109.0019         estimate D2E/DX2                !
 ! A43   A(2,17,25)            109.6761         estimate D2E/DX2                !
 ! A44   A(2,17,26)            109.4928         estimate D2E/DX2                !
 ! A45   A(25,17,26)           111.6105         estimate D2E/DX2                !
 ! A46   A(10,18,27)           110.7655         estimate D2E/DX2                !
 ! A47   A(10,18,28)           111.9817         estimate D2E/DX2                !
 ! A48   A(10,18,29)           109.7562         estimate D2E/DX2                !
 ! A49   A(27,18,28)           108.0897         estimate D2E/DX2                !
 ! A50   A(27,18,29)           108.0603         estimate D2E/DX2                !
 ! A51   A(28,18,29)           108.0637         estimate D2E/DX2                !
 ! A52   A(4,19,5)             121.268          estimate D2E/DX2                !
 ! A53   A(4,19,16)            114.7744         estimate D2E/DX2                !
 ! A54   A(5,19,16)            123.9569         estimate D2E/DX2                !
 ! D1    D(17,1,11,9)          179.6905         estimate D2E/DX2                !
 ! D2    D(17,1,11,12)          -0.2997         estimate D2E/DX2                !
 ! D3    D(11,1,17,2)            0.3457         estimate D2E/DX2                !
 ! D4    D(11,1,17,25)        -118.7405         estimate D2E/DX2                !
 ! D5    D(11,1,17,26)         119.1771         estimate D2E/DX2                !
 ! D6    D(17,2,12,11)           0.0819         estimate D2E/DX2                !
 ! D7    D(17,2,12,13)        -179.9357         estimate D2E/DX2                !
 ! D8    D(12,2,17,1)           -0.2628         estimate D2E/DX2                !
 ! D9    D(12,2,17,25)         118.4341         estimate D2E/DX2                !
 ! D10   D(12,2,17,26)        -118.7808         estimate D2E/DX2                !
 ! D11   D(30,4,19,5)            0.3679         estimate D2E/DX2                !
 ! D12   D(30,4,19,16)        -179.341          estimate D2E/DX2                !
 ! D13   D(10,6,7,8)           176.7468         estimate D2E/DX2                !
 ! D14   D(10,6,7,9)            -3.6266         estimate D2E/DX2                !
 ! D15   D(14,6,7,8)            -0.7212         estimate D2E/DX2                !
 ! D16   D(14,6,7,9)           178.9054         estimate D2E/DX2                !
 ! D17   D(7,6,10,18)          -79.2055         estimate D2E/DX2                !
 ! D18   D(7,6,10,21)           45.0521         estimate D2E/DX2                !
 ! D19   D(7,6,10,22)          159.2597         estimate D2E/DX2                !
 ! D20   D(14,6,10,18)          98.2939         estimate D2E/DX2                !
 ! D21   D(14,6,10,21)        -137.4485         estimate D2E/DX2                !
 ! D22   D(14,6,10,22)         -23.2409         estimate D2E/DX2                !
 ! D23   D(7,6,14,16)            0.6443         estimate D2E/DX2                !
 ! D24   D(7,6,14,24)         -179.1466         estimate D2E/DX2                !
 ! D25   D(10,6,14,16)        -176.895          estimate D2E/DX2                !
 ! D26   D(10,6,14,24)           3.3141         estimate D2E/DX2                !
 ! D27   D(6,7,8,13)           179.3438         estimate D2E/DX2                !
 ! D28   D(6,7,8,15)            -0.6314         estimate D2E/DX2                !
 ! D29   D(9,7,8,13)            -0.2812         estimate D2E/DX2                !
 ! D30   D(9,7,8,15)           179.7436         estimate D2E/DX2                !
 ! D31   D(6,7,9,11)          -179.1451         estimate D2E/DX2                !
 ! D32   D(6,7,9,20)             1.0718         estimate D2E/DX2                !
 ! D33   D(8,7,9,11)             0.473          estimate D2E/DX2                !
 ! D34   D(8,7,9,20)          -179.3101         estimate D2E/DX2                !
 ! D35   D(7,8,13,12)            0.0133         estimate D2E/DX2                !
 ! D36   D(7,8,13,23)          179.9221         estimate D2E/DX2                !
 ! D37   D(15,8,13,12)         179.9898         estimate D2E/DX2                !
 ! D38   D(15,8,13,23)          -0.1015         estimate D2E/DX2                !
 ! D39   D(7,8,15,3)          -178.2161         estimate D2E/DX2                !
 ! D40   D(7,8,15,16)            1.9332         estimate D2E/DX2                !
 ! D41   D(13,8,15,3)            1.808          estimate D2E/DX2                !
 ! D42   D(13,8,15,16)        -178.0427         estimate D2E/DX2                !
 ! D43   D(7,9,11,1)           179.5912         estimate D2E/DX2                !
 ! D44   D(7,9,11,12)           -0.4197         estimate D2E/DX2                !
 ! D45   D(20,9,11,1)           -0.6196         estimate D2E/DX2                !
 ! D46   D(20,9,11,12)         179.3695         estimate D2E/DX2                !
 ! D47   D(6,10,18,27)         -60.5901         estimate D2E/DX2                !
 ! D48   D(6,10,18,28)          60.1515         estimate D2E/DX2                !
 ! D49   D(6,10,18,29)        -179.8305         estimate D2E/DX2                !
 ! D50   D(21,10,18,27)        176.735          estimate D2E/DX2                !
 ! D51   D(21,10,18,28)        -62.5235         estimate D2E/DX2                !
 ! D52   D(21,10,18,29)         57.4945         estimate D2E/DX2                !
 ! D53   D(22,10,18,27)         58.8721         estimate D2E/DX2                !
 ! D54   D(22,10,18,28)        179.6137         estimate D2E/DX2                !
 ! D55   D(22,10,18,29)        -60.3683         estimate D2E/DX2                !
 ! D56   D(1,11,12,2)            0.142          estimate D2E/DX2                !
 ! D57   D(1,11,12,13)        -179.842          estimate D2E/DX2                !
 ! D58   D(9,11,12,2)         -179.8487         estimate D2E/DX2                !
 ! D59   D(9,11,12,13)           0.1673         estimate D2E/DX2                !
 ! D60   D(2,12,13,8)         -179.9333         estimate D2E/DX2                !
 ! D61   D(2,12,13,23)           0.1643         estimate D2E/DX2                !
 ! D62   D(11,12,13,8)           0.0473         estimate D2E/DX2                !
 ! D63   D(11,12,13,23)       -179.8551         estimate D2E/DX2                !
 ! D64   D(6,14,16,15)           0.823          estimate D2E/DX2                !
 ! D65   D(6,14,16,19)        -178.7312         estimate D2E/DX2                !
 ! D66   D(24,14,16,15)       -179.3908         estimate D2E/DX2                !
 ! D67   D(24,14,16,19)          1.055          estimate D2E/DX2                !
 ! D68   D(3,15,16,14)         178.1684         estimate D2E/DX2                !
 ! D69   D(3,15,16,19)          -2.3333         estimate D2E/DX2                !
 ! D70   D(8,15,16,14)          -1.9896         estimate D2E/DX2                !
 ! D71   D(8,15,16,19)         177.5088         estimate D2E/DX2                !
 ! D72   D(14,16,19,4)         179.3071         estimate D2E/DX2                !
 ! D73   D(14,16,19,5)          -0.393          estimate D2E/DX2                !
 ! D74   D(15,16,19,4)          -0.2152         estimate D2E/DX2                !
 ! D75   D(15,16,19,5)        -179.9153         estimate D2E/DX2                !
 --------------------------------------------------------------------------------
 Trust Radius=3.00D-01 FncErr=1.00D-07 GrdErr=1.00D-06
 Number of steps in this run=    171 maximum allowed number of steps=    180.
 GradGradGradGradGradGradGradGradGradGradGradGradGradGradGradGradGradGrad

                          Input orientation:                          
 ---------------------------------------------------------------------
 Center     Atomic      Atomic             Coordinates (Angstroms)
 Number     Number       Type             X           Y           Z
 ---------------------------------------------------------------------
      1          8           0       -9.663630    5.995800   -6.745190
      2          8           0       -9.392740    3.695130   -7.044450
      3          8           0       -4.339700    2.737470   -7.135710
      4          8           0       -1.647820    3.224230   -6.872880
      5          8           0       -1.004050    5.371060   -6.562870
      6          7           0       -4.839200    6.794620   -6.562770
      7          6           0       -5.975140    5.982440   -6.698950
      8          6           0       -5.796080    4.592960   -6.878830
      9          6           0       -7.271360    6.547390   -6.648400
     10          6           0       -4.950920    8.257120   -6.443410
     11          6           0       -8.331170    5.682100   -6.771840
     12          6           0       -8.161190    4.304940   -6.948950
     13          6           0       -6.915310    3.740670   -7.005820
     14          6           0       -3.605820    6.239040   -6.590730
     15          6           0       -4.454000    3.962480   -6.942820
     16          6           0       -3.346680    4.898440   -6.759070
     17          6           0      -10.371600    4.744780   -6.922550
     18          6           0       -5.177940    8.959120   -7.777070
     19          6           0       -1.913580    4.547370   -6.722400
     20          1           0       -7.446470    7.612050   -6.522350
     21          1           0       -5.753270    8.487430   -5.728580
     22          1           0       -4.016970    8.606350   -5.984290
     23          1           0       -6.730650    2.675770   -7.144360
     24          1           0       -2.765930    6.923150   -6.465130
     25          1           0      -10.973400    4.799390   -7.843350
     26          1           0      -11.000200    4.560000   -6.037640
     27          1           0       -4.342210    8.769480   -8.464220
     28          1           0       -6.102950    8.625180   -8.265010
     29          1           0       -5.248960   10.043800   -7.618390
     30          1           0       -0.666657    3.159210   -6.814790
 ---------------------------------------------------------------------
                    Distance matrix (angstroms):
                    1          2          3          4          5
     1  O    0.000000
     2  O    2.335813   0.000000
     3  O    6.254075   5.143798   0.000000
     4  O    8.482400   7.761119   2.748133   0.000000
     5  O    8.684001   8.568009   4.288415   2.262615   0.000000
     6  N    4.893518   5.529338   4.127739   4.798829   4.090831
     7  C    3.688804   4.126881   3.659953   5.134557   5.010393
     8  C    4.116280   3.710727   2.372735   4.368240   4.865061
     9  C    2.456944   3.576660   4.831935   6.535900   6.377323
    10  C    5.235864   6.395527   5.596374   6.035304   4.890950
    11  C    1.369148   2.269206   4.973437   7.121692   7.336696
    12  C    2.271090   1.377572   4.134686   6.602856   7.246401
    13  C    3.564660   2.478150   2.767137   5.294415   6.147957
    14  C    6.064659   6.337648   3.618919   3.605891   2.742877
    15  C    5.595864   4.947015   1.245360   2.902508   3.745746
    16  C    6.411571   6.171243   2.407849   2.387898   2.397870
    17  C    1.448354   1.440414   6.360703   8.855443   9.395349
    18  C    5.474254   6.783131   6.310540   6.794724   5.636472
    19  C    7.884272   7.534445   3.054934   1.357929   1.237400
    20  H    2.752766   4.404863   5.812896   7.280122   6.821177
    21  H    4.746855   6.159821   6.086069   6.772401   5.741332
    22  H    6.267273   7.358188   5.989464   5.947241   4.458648
    23  H    4.447955   2.852332   2.391762   5.119538   6.355837
    24  H    6.965391   7.393939   4.521764   3.885671   2.350055
    25  H    2.086348   2.087131   6.982710   9.507333  10.067491
    26  H    2.085322   2.084609   6.992112   9.484140  10.042744
    27  H    6.242265   7.298810   6.176576   6.367252   5.129103
    28  H    4.679950   6.051271   6.248960   7.138380   6.283738
    29  H    6.052941   7.603021   7.378495   7.747937   6.400616
    30  H    9.433801   8.745540   3.711078   0.985029   2.251572
                    6          7          8          9         10
     6  N    0.000000
     7  C    1.403047   0.000000
     8  C    2.421326   1.412471   0.000000
     9  C    2.446192   1.414889   2.459542   0.000000
    10  C    1.471609   2.507687   3.785493   2.889574   0.000000
    11  C    3.670867   2.376214   2.761223   1.373740   4.262005
    12  C    4.169324   2.766825   2.383614   2.431195   5.116750
    13  C    3.719292   2.450229   1.412516   2.851701   4.957162
    14  C    1.353025   2.385630   2.754963   3.678939   2.429742
    15  C    2.883372   2.540389   1.484176   3.834835   4.352042
    16  C    2.421084   2.843848   2.471279   4.258450   3.735500
    17  C    5.910900   4.572817   4.578247   3.596672   6.476873
    18  C    2.504861   3.264735   4.500254   3.387144   1.524136
    19  C    3.692542   4.307696   3.885918   5.719385   4.802657
    20  H    2.732706   2.202641   3.459157   1.086302   2.578782
    21  H    2.096903   2.695518   4.061010   2.629529   1.098995
    22  H    2.071972   3.351130   4.480260   3.907865   1.097732
    23  H    4.569547   3.421002   2.149313   3.940531   5.900020
    24  H    2.079544   3.352407   3.844833   4.524785   2.560103
    25  H    6.576415   5.262306   5.270442   4.264799   7.084207
    26  H    6.574740   5.264209   5.271769   4.269308   7.101207
    27  H    2.786141   3.681064   4.697927   4.100586   2.171800
    28  H    2.801006   3.074566   4.274864   2.880247   2.186520
    29  H    3.440844   4.226979   5.527924   4.154018   2.159081
    30  H    5.539841   6.013654   5.326417   7.424928   6.669447
                   11         12         13         14         15
    11  C    0.000000
    12  C    1.398868   0.000000
    13  C    2.414240   1.368887   0.000000
    14  C    4.761504   4.961901   4.167358   0.000000
    15  C    4.244853   3.722979   2.472087   2.454812   0.000000
    16  C    5.045734   4.854668   3.759845   1.375754   1.461486
    17  C    2.250475   2.253901   3.600154   6.936764   5.969120
    18  C    4.657489   5.589898   5.553873   3.358243   5.117272
    19  C    6.517324   6.256415   5.074288   2.396406   2.616183
    20  H    2.137673   3.410248   3.937443   4.079268   4.738252
    21  H    3.950169   4.978012   5.051080   3.226469   4.861857
    22  H    5.271034   6.050393   5.754888   2.478098   4.761859
    23  H    3.426143   2.176884   1.089635   4.771579   2.622856
    24  H    5.710181   6.016472   5.257174   1.090503   3.441415
    25  H    2.984743   2.992149   4.276732   7.610709   6.634301
    26  H    2.986951   2.992577   4.277266   7.602759   6.635444
    27  H    5.320514   6.067353   5.834098   3.233475   5.043253
    28  H    3.981990   4.963148   5.109200   3.838299   5.119374
    29  H    5.407503   6.470220   6.548390   4.269917   6.170155
    30  H    8.069175   7.582791   6.278555   4.263125   3.873706
                   16         17         18         19         20
    16  C    0.000000
    17  C    7.028502   0.000000
    18  C    4.569350   6.742772   0.000000
    19  C    1.475930   8.462691   5.588552   0.000000
    20  H    4.922194   4.115554   2.921498   6.328124   0.000000
    21  H    4.442346   6.063165   2.179405   5.590614   2.064773
    22  H    3.846839   7.494890   2.164800   4.630807   3.611040
    23  H    4.066935   4.193628   6.503208   5.185084   5.026545
    24  H    2.126763   7.924692   3.418209   2.537128   4.731312
    25  H    7.704046   1.101371   7.134080   9.132381   4.700567
    26  H    7.694893   1.101066   7.501772   9.112394   4.709453
    27  H    4.345523   7.411376   1.098446   5.172852   3.840174
    28  H    4.873753   5.922928   1.097836   6.046404   2.422466
    29  H    5.552642   7.403057   1.098524   6.491402   3.455975
    30  H    3.195395   9.834204   7.410574   1.868245   8.116598
                   21         22         23         24         25
    21  H    0.000000
    22  H    1.759053   0.000000
    23  H    6.060948   6.624319   0.000000
    24  H    3.451620   2.151620   5.849837   0.000000
    25  H    6.732284   8.144996   4.795756   8.589087   0.000000
    26  H    6.561288   8.071016   4.796270   8.577321   1.821706
    27  H    3.091014   2.506481   6.676824   3.144830   7.753694
    28  H    2.564123   3.090850   6.086489   4.155981   6.207717
    29  H    2.499600   2.500869   7.530470   4.151374   7.766831
    30  H    7.446033   6.448695   6.092154   4.323940  10.486996
                   26         27         28         29         30
    26  H    0.000000
    27  H    8.242381   0.000000
    28  H    6.743139   1.777839   0.000000
    29  H    8.102320   1.778065   1.777610   0.000000
    30  H   10.456973   6.906912   7.844313   8.309083   0.000000
 Stoichiometry    C13H11NO5
 Framework group  C1[X(C13H11NO5)]
 Deg. of freedom    84
 Full point group                 C1      NOp   1
 Largest Abelian subgroup         C1      NOp   1
 Largest concise Abelian subgroup C1      NOp   1
                         Standard orientation:                         
 ---------------------------------------------------------------------
 Center     Atomic      Atomic             Coordinates (Angstroms)
 Number     Number       Type             X           Y           Z
 ---------------------------------------------------------------------
      1          8           0        4.056147    0.533270   -0.185985
      2          8           0        3.715168   -1.757682    0.116164
      3          8           0       -1.364110   -2.548362    0.301681
      4          8           0       -4.042928   -1.972705    0.090054
      5          8           0       -4.621228    0.194664   -0.205760
      6          7           0       -0.741876    1.491002   -0.276757
      7          6           0        0.369007    0.641600   -0.162758
      8          6           0        0.147612   -0.741500    0.019158
      9          6           0        1.681982    1.163584   -0.237183
     10          6           0       -0.584227    2.949208   -0.396827
     11          6           0        2.714798    0.263631   -0.134538
     12          6           0        2.502831   -1.107451    0.044449
     13          6           0        1.240301   -1.630425    0.124245
     14          6           0       -1.992172    0.976346   -0.226093
     15          6           0       -1.213099   -1.327487    0.107822
     16          6           0       -2.292193   -0.355242   -0.054161
     17          6           0        4.725663   -0.740687   -0.023165
     18          6           0       -0.309145    3.641261    0.932979
     19          6           0       -3.736532   -0.658814   -0.064162
     20          1           0        1.889724    2.222087   -0.365509
     21          1           0        0.211709    3.154053   -1.126426
     22          1           0       -1.514609    3.329756   -0.837947
     23          1           0        1.023243   -2.688872    0.265239
     24          1           0       -2.811246    1.687971   -0.335210
     25          1           0        5.346136   -0.707384    0.886188
     26          1           0        5.331083   -0.944712   -0.919930
     27          1           0       -1.137615    3.478207    1.635569
     28          1           0        0.613350    3.276244    1.403097
     29          1           0       -0.205371    4.723256    0.774008
     30          1           0       -5.026620   -2.005250    0.050393
 ---------------------------------------------------------------------
 Rotational constants (GHZ):      0.6732306      0.2478627      0.1848600
 Standard basis: 3-21G (6D, 7F)
 There are   193 symmetry adapted cartesian basis functions of A   symmetry.
 There are   193 symmetry adapted basis functions of A   symmetry.
   193 basis functions,   318 primitive gaussians,   193 cartesian basis functions
    68 alpha electrons       68 beta electrons
       nuclear repulsion energy      1408.2471795515 Hartrees.
 NAtoms=   30 NActive=   30 NUniq=   30 SFac= 1.00D+00 NAtFMM=   60 NAOKFM=F Big=F
 Integral buffers will be    131072 words long.
 Raffenetti 2 integral format.
 Two-electron integral symmetry is turned on.
 One-electron integrals computed using PRISM.
 PrsmSu:  requested number of processors reduced to:   9 ShMem   1 Linda.
 NBasis=   193 RedAO= T EigKep=  1.29D-03  NBF=   193
 NBsUse=   193 1.00D-06 EigRej= -1.00D+00 NBFU=   193
 ExpMin= 1.83D-01 ExpMax= 3.22D+02 ExpMxC= 3.22D+02 IAcc=1 IRadAn=         1 AccDes= 0.00D+00
 Harris functional with IExCor=  402 and IRadAn=       1 diagonalized for initial guess.
 HarFok:  IExCor=  402 AccDes= 0.00D+00 IRadAn=         1 IDoV= 1 UseB2=F ITyADJ=14
 ICtDFT=  3500011 ScaDFX=  1.000000  1.000000  1.000000  1.000000
 FoFCou: FMM=F IPFlag=           0 FMFlag=      100000 FMFlg1=           0
         NFxFlg=           0 DoJE=T BraDBF=F KetDBF=T FulRan=T
         wScrn=  0.000000 ICntrl=     500 IOpCl=  0 I1Cent=   200000004 NGrid=           0
         NMat0=    1 NMatS0=      1 NMatT0=    0 NMatD0=    1 NMtDS0=    0 NMtDT0=    0
 Petite list used in FoFCou.
 Requested convergence on RMS density matrix=1.00D-08 within 128 cycles.
 Requested convergence on MAX density matrix=1.00D-06.
 Requested convergence on             energy=1.00D-06.
 No special actions if energy rises.
 Integral accuracy reduced to 1.0D-05 until final iterations.
 Initial convergence to 1.0D-05 achieved.  Increase integral accuracy.
 SCF Done:  E(RB3LYP) =  -927.740336956     A.U. after   17 cycles
            NFock= 17  Conv=0.41D-08     -V/T= 2.0080

 **********************************************************************

            Population analysis using the SCF density.

 **********************************************************************

 Orbital symmetries:
       Occupied  (A) (A) (A) (A) (A) (A) (A) (A) (A) (A) (A) (A)
                 (A) (A) (A) (A) (A) (A) (A) (A) (A) (A) (A) (A)
                 (A) (A) (A) (A) (A) (A) (A) (A) (A) (A) (A) (A)
                 (A) (A) (A) (A) (A) (A) (A) (A) (A) (A) (A) (A)
                 (A) (A) (A) (A) (A) (A) (A) (A) (A) (A) (A) (A)
                 (A) (A) (A) (A) (A) (A) (A) (A)
       Virtual   (A) (A) (A) (A) (A) (A) (A) (A) (A) (A) (A) (A)
                 (A) (A) (A) (A) (A) (A) (A) (A) (A) (A) (A) (A)
                 (A) (A) (A) (A) (A) (A) (A) (A) (A) (A) (A) (A)
                 (A) (A) (A) (A) (A) (A) (A) (A) (A) (A) (A) (A)
                 (A) (A) (A) (A) (A) (A) (A) (A) (A) (A) (A) (A)
                 (A) (A) (A) (A) (A) (A) (A) (A) (A) (A) (A) (A)
                 (A) (A) (A) (A) (A) (A) (A) (A) (A) (A) (A) (A)
                 (A) (A) (A) (A) (A) (A) (A) (A) (A) (A) (A) (A)
                 (A) (A) (A) (A) (A) (A) (A) (A) (A) (A) (A) (A)
                 (A) (A) (A) (A) (A) (A) (A) (A) (A) (A) (A) (A)
                 (A) (A) (A) (A) (A)
 The electronic state is 1-A.
 Alpha  occ. eigenvalues --  -19.10834 -19.10100 -19.06825 -19.01186 -18.99318
 Alpha  occ. eigenvalues --  -14.34174 -10.26364 -10.24960 -10.21629 -10.20628
 Alpha  occ. eigenvalues --  -10.20238 -10.19683 -10.19647 -10.19617 -10.15691
 Alpha  occ. eigenvalues --  -10.14787 -10.14380 -10.14167 -10.13890  -1.15704
 Alpha  occ. eigenvalues --   -1.09766  -1.06226  -1.01971  -1.00998  -1.00196
 Alpha  occ. eigenvalues --   -0.88573  -0.83095  -0.79746  -0.78109  -0.76895
 Alpha  occ. eigenvalues --   -0.71460  -0.68651  -0.67112  -0.65190  -0.61848
 Alpha  occ. eigenvalues --   -0.61290  -0.58413  -0.55758  -0.53681  -0.53564
 Alpha  occ. eigenvalues --   -0.51658  -0.49184  -0.48414  -0.48140  -0.47382
 Alpha  occ. eigenvalues --   -0.45922  -0.45247  -0.44594  -0.43967  -0.43379
 Alpha  occ. eigenvalues --   -0.42227  -0.41437  -0.40341  -0.39076  -0.38548
 Alpha  occ. eigenvalues --   -0.38363  -0.38059  -0.37313  -0.36597  -0.35808
 Alpha  occ. eigenvalues --   -0.35669  -0.31885  -0.28746  -0.26126  -0.25828
 Alpha  occ. eigenvalues --   -0.23802  -0.22184  -0.20710
 Alpha virt. eigenvalues --   -0.04191  -0.03197   0.01011   0.04520   0.08206
 Alpha virt. eigenvalues --    0.09149   0.09640   0.11360   0.11636   0.12495
 Alpha virt. eigenvalues --    0.12589   0.13320   0.14735   0.15923   0.15966
 Alpha virt. eigenvalues --    0.16563   0.17381   0.18573   0.19128   0.20021
 Alpha virt. eigenvalues --    0.21400   0.22807   0.23811   0.25708   0.26684
 Alpha virt. eigenvalues --    0.28847   0.30779   0.31621   0.34140   0.36579
 Alpha virt. eigenvalues --    0.39001   0.40312   0.43668   0.45277   0.49498
 Alpha virt. eigenvalues --    0.53051   0.57730   0.60542   0.63058   0.64019
 Alpha virt. eigenvalues --    0.65629   0.66407   0.67919   0.68380   0.69852
 Alpha virt. eigenvalues --    0.70614   0.71102   0.72763   0.73337   0.73761
 Alpha virt. eigenvalues --    0.74847   0.75466   0.76233   0.77646   0.78018
 Alpha virt. eigenvalues --    0.78739   0.80350   0.81099   0.82924   0.83422
 Alpha virt. eigenvalues --    0.86380   0.86888   0.87741   0.88267   0.90613
 Alpha virt. eigenvalues --    0.94613   0.95682   0.96557   0.97298   0.98731
 Alpha virt. eigenvalues --    1.00094   1.01380   1.02848   1.03524   1.05595
 Alpha virt. eigenvalues --    1.07683   1.08336   1.10986   1.12107   1.15783
 Alpha virt. eigenvalues --    1.19070   1.22276   1.25099   1.29177   1.29980
 Alpha virt. eigenvalues --    1.33927   1.37675   1.39148   1.41003   1.44511
 Alpha virt. eigenvalues --    1.46558   1.47831   1.49177   1.50287   1.51845
 Alpha virt. eigenvalues --    1.54569   1.57676   1.58935   1.60838   1.62478
 Alpha virt. eigenvalues --    1.63759   1.65697   1.66619   1.67793   1.71947
 Alpha virt. eigenvalues --    1.73182   1.74845   1.80287   1.81387   1.86935
 Alpha virt. eigenvalues --    1.89283   1.93099   1.95355   1.98896   2.03457
 Alpha virt. eigenvalues --    2.08047   2.15220   2.21872   2.43529   3.00418
 Alpha virt. eigenvalues --    3.16188   3.30497   3.43789   3.47344   3.59042
          Condensed to atoms (all electrons):
               1          2          3          4          5          6
     1  O    8.281922  -0.036196   0.000000   0.000000   0.000000  -0.000001
     2  O   -0.036196   8.278524   0.000000   0.000000   0.000000   0.000000
     3  O    0.000000   0.000000   8.081376  -0.000674  -0.000001  -0.000024
     4  O    0.000000   0.000000  -0.000674   8.234670  -0.065665  -0.000001
     5  O    0.000000   0.000000  -0.000001  -0.065665   8.150126   0.000096
     6  N   -0.000001   0.000000  -0.000024  -0.000001   0.000096   7.434959
     7  C    0.002696  -0.000217   0.003366  -0.000002   0.000001   0.190827
     8  C   -0.000243   0.002655  -0.125754   0.000095  -0.000015  -0.029155
     9  C   -0.044192   0.005134   0.000000   0.000000   0.000000  -0.050228
    10  C    0.000000   0.000000   0.000000   0.000000   0.000004   0.248238
    11  C    0.230598  -0.056260  -0.000007   0.000000   0.000000   0.005261
    12  C   -0.060122   0.222269   0.000799   0.000000   0.000000  -0.000336
    13  C    0.005210  -0.046476   0.004231   0.000000   0.000000   0.005064
    14  C    0.000000   0.000000   0.003533   0.003195   0.003632   0.239642
    15  C    0.000000  -0.000006   0.636164   0.001736   0.001993  -0.036189
    16  C    0.000000   0.000000  -0.115811  -0.092646  -0.113834  -0.014385
    17  C    0.245395   0.256149   0.000000   0.000000   0.000000   0.000000
    18  C    0.000000   0.000000   0.000000   0.000000   0.000000  -0.056672
    19  C    0.000000   0.000000  -0.004355   0.220100   0.517675   0.004642
    20  H   -0.001516  -0.000002   0.000000   0.000000   0.000000  -0.006504
    21  H    0.000000   0.000000   0.000000   0.000000   0.000000  -0.035742
    22  H    0.000000   0.000000   0.000000   0.000000  -0.000006  -0.032841
    23  H   -0.000001  -0.001406   0.017268   0.000000   0.000000  -0.000006
    24  H    0.000000   0.000000  -0.000003   0.000252   0.020847  -0.035339
    25  H   -0.033011  -0.033827   0.000000   0.000000   0.000000   0.000000
    26  H   -0.032871  -0.033796   0.000000   0.000000   0.000000   0.000000
    27  H    0.000000   0.000000   0.000000   0.000000   0.000000  -0.000524
    28  H   -0.000001   0.000000   0.000000   0.000000   0.000000  -0.002167
    29  H    0.000000   0.000000   0.000000   0.000000   0.000000   0.002644
    30  H    0.000000   0.000000   0.000184   0.239068   0.005800   0.000000
               7          8          9         10         11         12
     1  O    0.002696  -0.000243  -0.044192   0.000000   0.230598  -0.060122
     2  O   -0.000217   0.002655   0.005134   0.000000  -0.056260   0.222269
     3  O    0.003366  -0.125754   0.000000   0.000000  -0.000007   0.000799
     4  O   -0.000002   0.000095   0.000000   0.000000   0.000000   0.000000
     5  O    0.000001  -0.000015   0.000000   0.000004   0.000000   0.000000
     6  N    0.190827  -0.029155  -0.050228   0.248238   0.005261  -0.000336
     7  C    5.060066   0.327888   0.370781  -0.054144  -0.039596  -0.038362
     8  C    0.327888   5.968103  -0.045664   0.001136  -0.046458  -0.055740
     9  C    0.370781  -0.045664   5.344649  -0.004360   0.316386  -0.032736
    10  C   -0.054144   0.001136  -0.004360   5.199123   0.000124   0.000001
    11  C   -0.039596  -0.046458   0.316386   0.000124   5.291079   0.144078
    12  C   -0.038362  -0.055740  -0.032736   0.000001   0.144078   5.396851
    13  C   -0.069855   0.329392  -0.040904  -0.000076  -0.021161   0.226553
    14  C   -0.066482  -0.011831   0.002530  -0.063435  -0.000101   0.000024
    15  C    0.001204  -0.025647   0.005256   0.000056  -0.000856   0.011440
    16  C   -0.023146  -0.167019  -0.000775   0.002246  -0.000012  -0.000050
    17  C   -0.000218  -0.000207   0.006056   0.000000  -0.094999  -0.097850
    18  C   -0.000196  -0.000018  -0.002406   0.261806   0.000014  -0.000002
    19  C   -0.000579   0.005688  -0.000003  -0.000043   0.000000   0.000000
    20  H   -0.043065   0.003706   0.383383   0.001123  -0.043383   0.005067
    21  H   -0.002309   0.000190   0.001608   0.367751  -0.000022  -0.000006
    22  H    0.003005  -0.000067   0.000099   0.373921  -0.000005   0.000000
    23  H    0.002956  -0.054867  -0.000305   0.000000   0.004278  -0.033578
    24  H    0.003023  -0.000452  -0.000058  -0.002162   0.000000   0.000000
    25  H    0.000001   0.000002  -0.000034   0.000000   0.002403   0.002625
    26  H    0.000001   0.000002  -0.000040   0.000000   0.002417   0.002680
    27  H    0.000000  -0.000001   0.000019  -0.039888   0.000001   0.000000
    28  H    0.001675  -0.000031   0.002603  -0.039837  -0.000025   0.000001
    29  H   -0.000011   0.000000   0.000004  -0.035604   0.000001   0.000000
    30  H    0.000000   0.000005   0.000000   0.000000   0.000000   0.000000
              13         14         15         16         17         18
     1  O    0.005210   0.000000   0.000000   0.000000   0.245395   0.000000
     2  O   -0.046476   0.000000  -0.000006   0.000000   0.256149   0.000000
     3  O    0.004231   0.003533   0.636164  -0.115811   0.000000   0.000000
     4  O    0.000000   0.003195   0.001736  -0.092646   0.000000   0.000000
     5  O    0.000000   0.003632   0.001993  -0.113834   0.000000   0.000000
     6  N    0.005064   0.239642  -0.036189  -0.014385   0.000000  -0.056672
     7  C   -0.069855  -0.066482   0.001204  -0.023146  -0.000218  -0.000196
     8  C    0.329392  -0.011831  -0.025647  -0.167019  -0.000207  -0.000018
     9  C   -0.040904   0.002530   0.005256  -0.000775   0.006056  -0.002406
    10  C   -0.000076  -0.063435   0.000056   0.002246   0.000000   0.261806
    11  C   -0.021161  -0.000101  -0.000856  -0.000012  -0.094999   0.000014
    12  C    0.226553   0.000024   0.011440  -0.000050  -0.097850  -0.000002
    13  C    5.475450  -0.001221  -0.076137   0.014444   0.005177   0.000003
    14  C   -0.001221   5.116587  -0.025142   0.308634   0.000000   0.000044
    15  C   -0.076137  -0.025142   5.190159  -0.055629   0.000001  -0.000003
    16  C    0.014444   0.308634  -0.055629   6.441385   0.000000  -0.000054
    17  C    0.005177   0.000000   0.000001   0.000000   4.924065   0.000000
    18  C    0.000003   0.000044  -0.000003  -0.000054   0.000000   5.369640
    19  C    0.000007  -0.093892  -0.038083   0.065374   0.000000   0.000002
    20  H   -0.000607   0.000017   0.000005   0.000001  -0.000110  -0.000480
    21  H   -0.000002   0.002573   0.000003  -0.000111   0.000000  -0.051633
    22  H    0.000001  -0.000362  -0.000010   0.000529   0.000000  -0.045146
    23  H    0.373828  -0.000063   0.000887   0.001414  -0.000079   0.000000
    24  H    0.000001   0.363781   0.002743  -0.054594   0.000000   0.000014
    25  H   -0.000024   0.000000   0.000000   0.000000   0.324906   0.000000
    26  H   -0.000030   0.000000   0.000000   0.000000   0.325725   0.000000
    27  H    0.000000   0.001997   0.000000  -0.000063   0.000000   0.366953
    28  H   -0.000002  -0.000078  -0.000002   0.000016   0.000000   0.367611
    29  H    0.000000  -0.000021   0.000000   0.000000   0.000000   0.351017
    30  H    0.000000  -0.000302  -0.000086   0.012721   0.000000   0.000000
              19         20         21         22         23         24
     1  O    0.000000  -0.001516   0.000000   0.000000  -0.000001   0.000000
     2  O    0.000000  -0.000002   0.000000   0.000000  -0.001406   0.000000
     3  O   -0.004355   0.000000   0.000000   0.000000   0.017268  -0.000003
     4  O    0.220100   0.000000   0.000000   0.000000   0.000000   0.000252
     5  O    0.517675   0.000000   0.000000  -0.000006   0.000000   0.020847
     6  N    0.004642  -0.006504  -0.035742  -0.032841  -0.000006  -0.035339
     7  C   -0.000579  -0.043065  -0.002309   0.003005   0.002956   0.003023
     8  C    0.005688   0.003706   0.000190  -0.000067  -0.054867  -0.000452
     9  C   -0.000003   0.383383   0.001608   0.000099  -0.000305  -0.000058
    10  C   -0.000043   0.001123   0.367751   0.373921   0.000000  -0.002162
    11  C    0.000000  -0.043383  -0.000022  -0.000005   0.004278   0.000000
    12  C    0.000000   0.005067  -0.000006   0.000000  -0.033578   0.000000
    13  C    0.000007  -0.000607  -0.000002   0.000001   0.373828   0.000001
    14  C   -0.093892   0.000017   0.002573  -0.000362  -0.000063   0.363781
    15  C   -0.038083   0.000005   0.000003  -0.000010   0.000887   0.002743
    16  C    0.065374   0.000001  -0.000111   0.000529   0.001414  -0.054594
    17  C    0.000000  -0.000110   0.000000   0.000000  -0.000079   0.000000
    18  C    0.000002  -0.000480  -0.051633  -0.045146   0.000000   0.000014
    19  C    4.691420   0.000000   0.000001  -0.000017   0.000005   0.000962
    20  H    0.000000   0.487717   0.003020   0.000090   0.000002   0.000001
    21  H    0.000001   0.003020   0.516188  -0.025499   0.000000   0.000121
    22  H   -0.000017   0.000090  -0.025499   0.495486   0.000000   0.003473
    23  H    0.000005   0.000002   0.000000   0.000000   0.451572   0.000000
    24  H    0.000962   0.000001   0.000121   0.003473   0.000000   0.442673
    25  H    0.000000  -0.000001   0.000000   0.000000  -0.000001   0.000000
    26  H    0.000000   0.000000   0.000000   0.000000   0.000000   0.000000
    27  H    0.000000  -0.000014   0.003305  -0.002789   0.000000   0.000251
    28  H    0.000000   0.001661  -0.003184   0.003035   0.000000   0.000000
    29  H    0.000000   0.000085   0.000151  -0.000679   0.000000  -0.000011
    30  H   -0.031269   0.000000   0.000000   0.000000   0.000000  -0.000017
              25         26         27         28         29         30
     1  O   -0.033011  -0.032871   0.000000  -0.000001   0.000000   0.000000
     2  O   -0.033827  -0.033796   0.000000   0.000000   0.000000   0.000000
     3  O    0.000000   0.000000   0.000000   0.000000   0.000000   0.000184
     4  O    0.000000   0.000000   0.000000   0.000000   0.000000   0.239068
     5  O    0.000000   0.000000   0.000000   0.000000   0.000000   0.005800
     6  N    0.000000   0.000000  -0.000524  -0.002167   0.002644   0.000000
     7  C    0.000001   0.000001   0.000000   0.001675  -0.000011   0.000000
     8  C    0.000002   0.000002  -0.000001  -0.000031   0.000000   0.000005
     9  C   -0.000034  -0.000040   0.000019   0.002603   0.000004   0.000000
    10  C    0.000000   0.000000  -0.039888  -0.039837  -0.035604   0.000000
    11  C    0.002403   0.002417   0.000001  -0.000025   0.000001   0.000000
    12  C    0.002625   0.002680   0.000000   0.000001   0.000000   0.000000
    13  C   -0.000024  -0.000030   0.000000  -0.000002   0.000000   0.000000
    14  C    0.000000   0.000000   0.001997  -0.000078  -0.000021  -0.000302
    15  C    0.000000   0.000000   0.000000  -0.000002   0.000000  -0.000086
    16  C    0.000000   0.000000  -0.000063   0.000016   0.000000   0.012721
    17  C    0.324906   0.325725   0.000000   0.000000   0.000000   0.000000
    18  C    0.000000   0.000000   0.366953   0.367611   0.351017   0.000000
    19  C    0.000000   0.000000   0.000000   0.000000   0.000000  -0.031269
    20  H   -0.000001   0.000000  -0.000014   0.001661   0.000085   0.000000
    21  H    0.000000   0.000000   0.003305  -0.003184   0.000151   0.000000
    22  H    0.000000   0.000000  -0.002789   0.003035  -0.000679   0.000000
    23  H   -0.000001   0.000000   0.000000   0.000000   0.000000   0.000000
    24  H    0.000000   0.000000   0.000251   0.000000  -0.000011  -0.000017
    25  H    0.572808  -0.058972   0.000000   0.000000   0.000000   0.000000
    26  H   -0.058972   0.571018   0.000000   0.000000   0.000000   0.000000
    27  H    0.000000   0.000000   0.505713  -0.025040  -0.023767   0.000000
    28  H    0.000000   0.000000  -0.025040   0.502820  -0.024768   0.000000
    29  H    0.000000   0.000000  -0.023767  -0.024768   0.529040   0.000000
    30  H    0.000000   0.000000   0.000000   0.000000   0.000000   0.413683
 Mulliken charges:
               1
     1  O   -0.557666
     2  O   -0.556546
     3  O   -0.500293
     4  O   -0.540128
     5  O   -0.520655
     6  N   -0.831262
     7  C    0.370691
     8  C   -0.075694
     9  C   -0.216803
    10  C   -0.215982
    11  C    0.306247
    12  C    0.306391
    13  C   -0.182866
    14  C    0.216742
    15  C    0.406143
    16  C   -0.208634
    17  C    0.105989
    18  C   -0.560493
    19  C    0.662366
    20  H    0.209802
    21  H    0.223597
    22  H    0.227785
    23  H    0.238095
    24  H    0.254494
    25  H    0.223123
    26  H    0.223866
    27  H    0.213846
    28  H    0.215714
    29  H    0.201918
    30  H    0.360213
 Sum of Mulliken charges =   0.00000
 Mulliken charges with hydrogens summed into heavy atoms:
               1
     1  O   -0.557666
     2  O   -0.556546
     3  O   -0.500293
     4  O   -0.179916
     5  O   -0.520655
     6  N   -0.831262
     7  C    0.370691
     8  C   -0.075694
     9  C   -0.007000
    10  C    0.235400
    11  C    0.306247
    12  C    0.306391
    13  C    0.055228
    14  C    0.471235
    15  C    0.406143
    16  C   -0.208634
    17  C    0.552978
    18  C    0.070986
    19  C    0.662366
 Electronic spatial extent (au):  <R**2>=           5511.2495
 Charge=              0.0000 electrons
 Dipole moment (field-independent basis, Debye):
    X=              3.7611    Y=              5.2810    Z=             -0.4581  Tot=              6.4996
 Quadrupole moment (field-independent basis, Debye-Ang):
   XX=            -98.4561   YY=           -105.9571   ZZ=           -108.7707
   XY=             -2.6316   XZ=              0.0010   YZ=              0.7094
 Traceless Quadrupole moment (field-independent basis, Debye-Ang):
   XX=              5.9385   YY=             -1.5624   ZZ=             -4.3761
   XY=             -2.6316   XZ=              0.0010   YZ=              0.7094
 Octapole moment (field-independent basis, Debye-Ang**2):
  XXX=             76.7554  YYY=             56.7286  ZZZ=              1.7658  XYY=            -13.1273
  XXY=            -60.4672  XXZ=              5.4420  XZZ=             -3.1058  YZZ=             -4.0074
  YYZ=             -7.0462  XYZ=             -0.5157
 Hexadecapole moment (field-independent basis, Debye-Ang**3):
 XXXX=          -4121.2805 YYYY=          -1884.7900 ZZZZ=           -184.4420 XXXY=            202.2228
 XXXZ=            -28.6583 YYYX=             -7.6900 YYYZ=             -5.2956 ZZZX=             -1.2318
 ZZZY=             -4.6601 XXYY=          -1099.4345 XXZZ=           -799.1738 YYZZ=           -351.5824
 XXYZ=             13.9649 YYXZ=              7.2757 ZZXY=              5.0738
 N-N= 1.408247179551D+03 E-N=-4.981410044915D+03  KE= 9.203449089870D+02
 PrsmSu:  requested number of processors reduced to:   9 ShMem   1 Linda.
 Calling FoFJK, ICntrl=      2127 FMM=F ISym2X=0 I1Cent= 0 IOpClX= 0 NMat=1 NMatS=1 NMatT=0.
 ***** Axes restored to original set *****
 -------------------------------------------------------------------
 Center     Atomic                   Forces (Hartrees/Bohr)
 Number     Number              X              Y              Z
 -------------------------------------------------------------------
      1        8          -0.006921119    0.017849535    0.001932304
      2        8          -0.002568742   -0.018647844   -0.002670234
      3        8          -0.000999011   -0.004370885   -0.000125797
      4        8          -0.007999706   -0.005279531   -0.001157442
      5        8           0.001544529    0.003024980    0.000438409
      6        7           0.000132692   -0.005052349   -0.001935794
      7        6           0.000642817    0.000304706   -0.000107561
      8        6          -0.002720766    0.004770624    0.000544014
      9        6          -0.003037066    0.000028605   -0.000151018
     10        6          -0.000264373    0.008719851    0.013319585
     11        6           0.019901715    0.003892649    0.000847987
     12        6           0.020715687    0.000425179    0.000560779
     13        6           0.002195934   -0.002381193   -0.000716741
     14        6           0.011036874   -0.006393840   -0.000702546
     15        6           0.005982494   -0.002550352   -0.000300936
     16        6          -0.002665530    0.008667189    0.001519872
     17        6          -0.036352088   -0.004735735   -0.000789623
     18        6          -0.001395428    0.005030700   -0.010543481
     19        6          -0.010999286    0.010970630    0.000488683
     20        1           0.000637633   -0.006373042   -0.000553791
     21        1           0.002021595   -0.000356912   -0.002441735
     22        1          -0.001967715   -0.000445011   -0.001928733
     23        1          -0.001580504    0.006053554    0.000764492
     24        1          -0.002203137   -0.004857291   -0.000508328
     25        1           0.002172344   -0.000462862    0.004616189
     26        1           0.002058956    0.000918768   -0.004521632
     27        1          -0.001660136   -0.000405004    0.002077351
     28        1           0.002225059   -0.000327142    0.001996883
     29        1           0.000198912   -0.001846470    0.000215152
     30        1           0.011867368   -0.006171505   -0.000166306
 -------------------------------------------------------------------
 Cartesian Forces:  Max     0.036352088 RMS     0.007012089

 GradGradGradGradGradGradGradGradGradGradGradGradGradGradGradGradGradGrad
 Berny optimization.
 FormGI is forming the generalized inverse of G from B-inverse, IUseBI=4.
 Internal  Forces:  Max     0.021694980 RMS     0.004363499
 Search for a local minimum.
 Step number   1 out of a maximum of  171
 All quantities printed in internal units (Hartrees-Bohrs-Radians)
 Mixed Optimization -- RFO/linear search
 Second derivative matrix not updated -- first step.
 ITU=  0
     Eigenvalues ---    0.00447   0.00745   0.01084   0.01128   0.01277
     Eigenvalues ---    0.01316   0.01457   0.01495   0.01593   0.01662
     Eigenvalues ---    0.01820   0.01859   0.02042   0.02103   0.02169
     Eigenvalues ---    0.02183   0.02224   0.02248   0.02253   0.02334
     Eigenvalues ---    0.02363   0.04051   0.05331   0.05496   0.05715
     Eigenvalues ---    0.07406   0.09683   0.09924   0.11694   0.11960
     Eigenvalues ---    0.12968   0.16000   0.16000   0.16000   0.16000
     Eigenvalues ---    0.16000   0.16000   0.16000   0.21941   0.23134
     Eigenvalues ---    0.23432   0.23820   0.24035   0.24975   0.24992
     Eigenvalues ---    0.24995   0.24999   0.25000   0.25000   0.25000
     Eigenvalues ---    0.25000   0.25000   0.29972   0.33326   0.33531
     Eigenvalues ---    0.33564   0.33793   0.33846   0.33855   0.33923
     Eigenvalues ---    0.33934   0.34755   0.34855   0.35040   0.35243
     Eigenvalues ---    0.35548   0.35570   0.36014   0.38106   0.39232
     Eigenvalues ---    0.41089   0.42907   0.43743   0.44151   0.47269
     Eigenvalues ---    0.48519   0.48845   0.50148   0.50306   0.50420
     Eigenvalues ---    0.52970   0.53368   0.84975   0.88071
 RFO step:  Lambda=-8.00708989D-03 EMin= 4.46672131D-03
 Linear search not attempted -- first point.
 Iteration  1 RMS(Cart)=  0.02889107 RMS(Int)=  0.00046803
 Iteration  2 RMS(Cart)=  0.00063980 RMS(Int)=  0.00004133
 Iteration  3 RMS(Cart)=  0.00000069 RMS(Int)=  0.00004133
 Variable       Old X    -DE/DX   Delta X   Delta X   Delta X     New X
                                 (Linear)    (Quad)   (Total)
    R1        2.58732   0.02169   0.00000   0.04153   0.04148   2.62880
    R2        2.73699   0.02045   0.00000   0.05310   0.05320   2.79019
    R3        2.60323   0.02143   0.00000   0.04218   0.04214   2.64538
    R4        2.72199   0.01980   0.00000   0.04995   0.05006   2.77205
    R5        2.35339   0.00423   0.00000   0.00493   0.00493   2.35832
    R6        2.56611   0.01206   0.00000   0.02226   0.02226   2.58838
    R7        1.86144   0.01222   0.00000   0.02385   0.02385   1.88529
    R8        2.33835   0.00321   0.00000   0.00361   0.00361   2.34196
    R9        2.65137   0.00497   0.00000   0.01156   0.01155   2.66293
   R10        2.78094   0.01059   0.00000   0.02914   0.02914   2.81008
   R11        2.55685   0.00598   0.00000   0.01105   0.01105   2.56790
   R12        2.66918  -0.00105   0.00000  -0.00183  -0.00182   2.66737
   R13        2.67375   0.00238   0.00000   0.00565   0.00566   2.67941
   R14        2.66927  -0.00109   0.00000  -0.00265  -0.00264   2.66662
   R15        2.80469   0.00202   0.00000   0.00547   0.00547   2.81015
   R16        2.59599  -0.00048   0.00000  -0.00077  -0.00078   2.59521
   R17        2.05281  -0.00641   0.00000  -0.01779  -0.01779   2.03502
   R18        2.88020   0.00669   0.00000   0.02173   0.02173   2.90193
   R19        2.07680  -0.00314   0.00000  -0.00907  -0.00907   2.06773
   R20        2.07441  -0.00262   0.00000  -0.00755  -0.00755   2.06686
   R21        2.64348   0.00383   0.00000   0.00719   0.00704   2.65051
   R22        2.58682  -0.00218   0.00000  -0.00440  -0.00441   2.58241
   R23        2.05911  -0.00628   0.00000  -0.01762  -0.01762   2.04150
   R24        2.59980  -0.00878   0.00000  -0.01772  -0.01771   2.58209
   R25        2.06075  -0.00480   0.00000  -0.01351  -0.01351   2.04724
   R26        2.76181  -0.00152   0.00000  -0.00496  -0.00494   2.75687
   R27        2.78910  -0.00604   0.00000  -0.01685  -0.01685   2.77225
   R28        2.08129  -0.00507   0.00000  -0.01475  -0.01475   2.06654
   R29        2.08071  -0.00497   0.00000  -0.01445  -0.01445   2.06626
   R30        2.07576  -0.00249   0.00000  -0.00720  -0.00720   2.06857
   R31        2.07461  -0.00266   0.00000  -0.00767  -0.00767   2.06694
   R32        2.07591  -0.00180   0.00000  -0.00521  -0.00521   2.07070
    A1        1.84983   0.00399   0.00000   0.01741   0.01744   1.86727
    A2        1.85364   0.00383   0.00000   0.01619   0.01624   1.86988
    A3        1.82629   0.01013   0.00000   0.06030   0.06030   1.88659
    A4        2.11963   0.00103   0.00000   0.00299   0.00299   2.12262
    A5        2.09247  -0.00271   0.00000  -0.00872  -0.00874   2.08372
    A6        2.07026   0.00168   0.00000   0.00551   0.00551   2.07578
    A7        2.07051  -0.00099   0.00000  -0.00156  -0.00160   2.06891
    A8        2.10263   0.00478   0.00000   0.01741   0.01743   2.12006
    A9        2.11003  -0.00379   0.00000  -0.01584  -0.01583   2.09420
   A10        2.09967   0.00160   0.00000   0.00517   0.00518   2.10485
   A11        2.13887   0.00214   0.00000   0.00912   0.00910   2.14797
   A12        2.04464  -0.00374   0.00000  -0.01429  -0.01428   2.03036
   A13        2.03987   0.00326   0.00000   0.01463   0.01460   2.05446
   A14        2.14499  -0.00122   0.00000  -0.00488  -0.00486   2.14013
   A15        2.09832  -0.00204   0.00000  -0.00975  -0.00973   2.08859
   A16        1.98021  -0.00321   0.00000  -0.01580  -0.01583   1.96439
   A17        1.89278   0.00139   0.00000   0.00719   0.00715   1.89993
   A18        1.86033   0.00136   0.00000   0.00599   0.00592   1.86624
   A19        1.94323   0.00053   0.00000   0.00059   0.00061   1.94384
   A20        1.92428   0.00019   0.00000  -0.00273  -0.00273   1.92156
   A21        1.85713  -0.00003   0.00000   0.00646   0.00642   1.86355
   A22        2.22023   0.00175   0.00000   0.00774   0.00787   2.22810
   A23        1.92441  -0.00020   0.00000  -0.00233  -0.00249   1.92192
   A24        2.13855  -0.00155   0.00000  -0.00541  -0.00538   2.13317
   A25        1.91341   0.00056   0.00000   0.00076   0.00061   1.91401
   A26        2.25018   0.00145   0.00000   0.00714   0.00726   2.25744
   A27        2.11960  -0.00201   0.00000  -0.00790  -0.00787   2.11173
   A28        2.05862   0.00249   0.00000   0.00936   0.00932   2.06795
   A29        2.05651  -0.00071   0.00000  -0.00147  -0.00145   2.05505
   A30        2.16805  -0.00178   0.00000  -0.00789  -0.00787   2.16018
   A31        2.18262  -0.00014   0.00000  -0.00094  -0.00094   2.18168
   A32        2.02874   0.00251   0.00000   0.01497   0.01496   2.04370
   A33        2.07182  -0.00236   0.00000  -0.01403  -0.01403   2.05779
   A34        2.10311   0.00009   0.00000   0.00132   0.00132   2.10444
   A35        2.18939   0.00333   0.00000   0.01387   0.01387   2.20326
   A36        1.99068  -0.00342   0.00000  -0.01520  -0.01520   1.97548
   A37        2.09061   0.00513   0.00000   0.01771   0.01772   2.10834
   A38        1.99505  -0.00240   0.00000  -0.00822  -0.00823   1.98682
   A39        2.19749  -0.00272   0.00000  -0.00945  -0.00946   2.18803
   A40        1.88348  -0.00818   0.00000  -0.03201  -0.03179   1.85169
   A41        1.90354   0.00221   0.00000   0.00772   0.00765   1.91119
   A42        1.90244   0.00223   0.00000   0.00891   0.00888   1.91133
   A43        1.91421   0.00200   0.00000   0.00634   0.00627   1.92048
   A44        1.91101   0.00241   0.00000   0.01044   0.01039   1.92140
   A45        1.94797  -0.00095   0.00000  -0.00251  -0.00258   1.94539
   A46        1.93322  -0.00099   0.00000  -0.00664  -0.00668   1.92655
   A47        1.95445  -0.00168   0.00000  -0.01110  -0.01113   1.94332
   A48        1.91561  -0.00004   0.00000   0.00155   0.00156   1.91717
   A49        1.88652   0.00100   0.00000   0.00266   0.00258   1.88910
   A50        1.88601   0.00080   0.00000   0.00691   0.00691   1.89292
   A51        1.88607   0.00105   0.00000   0.00758   0.00759   1.89366
   A52        2.11653   0.00300   0.00000   0.01166   0.01164   2.12817
   A53        2.00319  -0.00319   0.00000  -0.01235  -0.01236   1.99083
   A54        2.16346   0.00019   0.00000   0.00073   0.00072   2.16418
    D1        3.13619   0.00006   0.00000   0.00133   0.00134   3.13753
    D2       -0.00523   0.00013   0.00000   0.00352   0.00355  -0.00168
    D3        0.00603  -0.00018   0.00000  -0.00342  -0.00338   0.00265
    D4       -2.07241   0.00089   0.00000   0.00306   0.00307  -2.06934
    D5        2.08003  -0.00071   0.00000  -0.00423  -0.00423   2.07580
    D6        0.00143  -0.00002   0.00000   0.00028   0.00028   0.00171
    D7       -3.14047   0.00003   0.00000   0.00162   0.00162  -3.13885
    D8       -0.00459   0.00012   0.00000   0.00196   0.00193  -0.00265
    D9        2.06706  -0.00087   0.00000  -0.00388  -0.00387   2.06320
   D10       -2.07312   0.00082   0.00000   0.00394   0.00397  -2.06915
   D11        0.00642  -0.00006   0.00000  -0.00053  -0.00050   0.00592
   D12       -3.13009  -0.00027   0.00000  -0.01004  -0.01006  -3.14015
   D13        3.08481   0.00006   0.00000  -0.00052  -0.00051   3.08430
   D14       -0.06330   0.00003   0.00000   0.00068   0.00072  -0.06257
   D15       -0.01259   0.00011   0.00000   0.00525   0.00525  -0.00733
   D16        3.12249   0.00009   0.00000   0.00645   0.00649   3.12898
   D17       -1.38240   0.00007   0.00000   0.00678   0.00681  -1.37559
   D18        0.78631  -0.00045   0.00000   0.00190   0.00189   0.78820
   D19        2.77961   0.00087   0.00000   0.01579   0.01584   2.79544
   D20        1.71555  -0.00010   0.00000   0.00073   0.00071   1.71627
   D21       -2.39893  -0.00061   0.00000  -0.00415  -0.00420  -2.40313
   D22       -0.40563   0.00070   0.00000   0.00974   0.00975  -0.39588
   D23        0.01125  -0.00010   0.00000  -0.00635  -0.00637   0.00487
   D24       -3.12670  -0.00001   0.00000  -0.00359  -0.00360  -3.13030
   D25       -3.08740  -0.00003   0.00000  -0.00069  -0.00071  -3.08811
   D26        0.05784   0.00006   0.00000   0.00207   0.00206   0.05990
   D27        3.13014   0.00007   0.00000   0.00397   0.00399   3.13413
   D28       -0.01102   0.00007   0.00000   0.00391   0.00394  -0.00708
   D29       -0.00491   0.00006   0.00000   0.00264   0.00264  -0.00227
   D30        3.13712   0.00005   0.00000   0.00258   0.00259   3.13971
   D31       -3.12667  -0.00007   0.00000  -0.00443  -0.00447  -3.13114
   D32        0.01871  -0.00007   0.00000  -0.00365  -0.00367   0.01504
   D33        0.00826  -0.00008   0.00000  -0.00315  -0.00316   0.00509
   D34       -3.12955  -0.00008   0.00000  -0.00237  -0.00236  -3.13191
   D35        0.00023  -0.00002   0.00000  -0.00139  -0.00142  -0.00119
   D36        3.14023  -0.00002   0.00000  -0.00099  -0.00100   3.13923
   D37        3.14141  -0.00001   0.00000  -0.00132  -0.00136   3.14005
   D38       -0.00177  -0.00001   0.00000  -0.00093  -0.00094  -0.00272
   D39       -3.11046  -0.00028   0.00000  -0.01414  -0.01412  -3.12458
   D40        0.03374  -0.00028   0.00000  -0.01165  -0.01160   0.02214
   D41        0.03155  -0.00029   0.00000  -0.01421  -0.01417   0.01738
   D42       -3.10743  -0.00029   0.00000  -0.01171  -0.01166  -3.11909
   D43        3.13446   0.00016   0.00000   0.00508   0.00510   3.13956
   D44       -0.00732   0.00007   0.00000   0.00264   0.00266  -0.00467
   D45       -0.01081   0.00015   0.00000   0.00433   0.00433  -0.00648
   D46        3.13059   0.00007   0.00000   0.00189   0.00189   3.13247
   D47       -1.05750   0.00034   0.00000   0.00527   0.00523  -1.05226
   D48        1.04984  -0.00022   0.00000  -0.00352  -0.00351   1.04633
   D49       -3.13863  -0.00001   0.00000  -0.00013  -0.00014  -3.13877
   D50        3.08461   0.00048   0.00000   0.00707   0.00704   3.09165
   D51       -1.09124  -0.00007   0.00000  -0.00171  -0.00170  -1.09294
   D52        1.00347   0.00013   0.00000   0.00168   0.00167   1.00514
   D53        1.02751   0.00007   0.00000   0.00042   0.00042   1.02793
   D54        3.13485  -0.00049   0.00000  -0.00836  -0.00832   3.12653
   D55       -1.05363  -0.00028   0.00000  -0.00497  -0.00495  -1.05858
   D56        0.00248  -0.00009   0.00000  -0.00250  -0.00249  -0.00001
   D57       -3.13883  -0.00013   0.00000  -0.00373  -0.00370   3.14065
   D58       -3.13895  -0.00002   0.00000  -0.00043  -0.00042  -3.13937
   D59        0.00292  -0.00006   0.00000  -0.00166  -0.00164   0.00128
   D60       -3.14043  -0.00003   0.00000  -0.00059  -0.00058  -3.14100
   D61        0.00287  -0.00003   0.00000  -0.00102  -0.00103   0.00184
   D62        0.00083   0.00002   0.00000   0.00090   0.00090   0.00173
   D63       -3.13906   0.00003   0.00000   0.00047   0.00045  -3.13861
   D64        0.01436  -0.00003   0.00000  -0.00191  -0.00193   0.01243
   D65       -3.11945  -0.00017   0.00000  -0.00725  -0.00729  -3.12674
   D66       -3.13096  -0.00011   0.00000  -0.00468  -0.00467  -3.13563
   D67        0.01841  -0.00026   0.00000  -0.01001  -0.01003   0.00839
   D68        3.10962   0.00022   0.00000   0.01309   0.01311   3.12274
   D69       -0.04072   0.00039   0.00000   0.01911   0.01915  -0.02158
   D70       -0.03473   0.00022   0.00000   0.01042   0.01040  -0.02433
   D71        3.09811   0.00039   0.00000   0.01645   0.01643   3.11455
   D72        3.12950   0.00026   0.00000   0.01066   0.01061   3.14011
   D73       -0.00686   0.00004   0.00000   0.00082   0.00080  -0.00606
   D74       -0.00376   0.00007   0.00000   0.00480   0.00483   0.00107
   D75       -3.14011  -0.00016   0.00000  -0.00503  -0.00499   3.13809
         Item               Value     Threshold  Converged?
 Maximum Force            0.021695     0.000450     NO 
 RMS     Force            0.004363     0.000300     NO 
 Maximum Displacement     0.139208     0.001800     NO 
 RMS     Displacement     0.029174     0.001200     NO 
 Predicted change in Energy=-4.108213D-03
 GradGradGradGradGradGradGradGradGradGradGradGradGradGradGradGradGradGrad

                          Input orientation:                          
 ---------------------------------------------------------------------
 Center     Atomic      Atomic             Coordinates (Angstroms)
 Number     Number       Type             X           Y           Z
 ---------------------------------------------------------------------
      1          8           0       -9.688505    5.983273   -6.755722
      2          8           0       -9.397193    3.668242   -7.053180
      3          8           0       -4.340939    2.735186   -7.101385
      4          8           0       -1.674050    3.222583   -6.892303
      5          8           0       -1.009222    5.383293   -6.580625
      6          7           0       -4.824454    6.812641   -6.547660
      7          6           0       -5.965945    5.997921   -6.685358
      8          6           0       -5.785858    4.609434   -6.864329
      9          6           0       -7.274122    6.542998   -6.641086
     10          6           0       -4.931646    8.290971   -6.428060
     11          6           0       -8.331713    5.676610   -6.771082
     12          6           0       -8.150908    4.297048   -6.948216
     13          6           0       -6.898696    3.752091   -6.997764
     14          6           0       -3.590955    6.243568   -6.581858
     15          6           0       -4.446566    3.965854   -6.923282
     16          6           0       -3.347701    4.909363   -6.748379
     17          6           0      -10.419819    4.713549   -6.937525
     18          6           0       -5.165245    8.975998   -7.782442
     19          6           0       -1.923211    4.559332   -6.727595
     20          1           0       -7.460230    7.596189   -6.515233
     21          1           0       -5.727741    8.531468   -5.716962
     22          1           0       -3.995737    8.643334   -5.985145
     23          1           0       -6.707670    2.697686   -7.134932
     24          1           0       -2.739823    6.902949   -6.461649
     25          1           0      -11.012026    4.761537   -7.855604
     26          1           0      -11.050414    4.527006   -6.063961
     27          1           0       -4.334930    8.766008   -8.464140
     28          1           0       -6.089677    8.626549   -8.251116
     29          1           0       -5.234301   10.060746   -7.643661
     30          1           0       -0.686301    3.085544   -6.862564
 ---------------------------------------------------------------------
                    Distance matrix (angstroms):
                    1          2          3          4          5
     1  O    0.000000
     2  O    2.352173   0.000000
     3  O    6.266261   5.141850   0.000000
     4  O    8.477710   7.737664   2.719112   0.000000
     5  O    8.701758   8.574542   4.287656   2.282062   0.000000
     6  N    4.938637   5.572499   4.143192   4.788772   4.074324
     7  C    3.723254   4.163672   3.668674   5.115242   4.995782
     8  C    4.138827   3.736744   2.378401   4.339482   4.847225
     9  C    2.481065   3.597427   4.828548   6.515296   6.371620
    10  C    5.297220   6.457670   5.627526   6.042848   4.885005
    11  C    1.391101   2.290933   4.968637   7.096579   7.330838
    12  C    2.290113   1.399872   4.120526   6.565615   7.233168
    13  C    3.580474   2.500518   2.754443   5.252469   6.125417
    14  C    6.105580   6.369211   3.625070   3.591275   2.721290
    15  C    5.619251   4.961266   1.247967   2.870585   3.733882
    16  C    6.431107   6.183012   2.416233   2.380557   2.391910
    17  C    1.476507   1.466904   6.394807   8.872063   9.441147
    18  C    5.520004   6.827407   6.331750   6.788415   5.623559
    19  C    7.894821   7.533954   3.051661   1.369711   1.239309
    20  H    2.761258   4.412481   5.805420   7.262953   6.820314
    21  H    4.822860   6.237093   6.118557   6.782190   5.737712
    22  H    6.330666   7.420780   6.022572   5.966382   4.461136
    23  H    4.452445   2.860454   2.367265   5.066726   6.323926
    24  H    7.015445   7.425215   4.510331   3.855701   2.306185
    25  H    2.110471   2.108758   7.012727   9.512840  10.102882
    26  H    2.110460   2.109305   7.021675   9.502835  10.090872
    27  H    6.270812   7.321512   6.182876   6.346693   5.103991
    28  H    4.708999   6.079434   6.252050   7.109641   6.254621
    29  H    6.103618   7.651304   7.399729   7.745993   6.392176
    30  H    9.457692   8.732440   3.679153   0.997653   2.337395
                    6          7          8          9         10
     6  N    0.000000
     7  C    1.409160   0.000000
     8  C    2.424602   1.411510   0.000000
     9  C    2.466234   1.417884   2.450192   0.000000
    10  C    1.487028   2.528646   3.804434   2.930525   0.000000
    11  C    3.693420   2.389027   2.762054   1.373327   4.302673
    12  C    4.189743   2.781390   2.387066   2.430510   5.156125
    13  C    3.724519   2.451811   1.411117   2.838543   4.979485
    14  C    1.358872   2.389902   2.750960   3.695793   2.452135
    15  C    2.896219   2.548415   1.487069   3.836193   4.380317
    16  C    2.417344   2.836218   2.459270   4.254064   3.747900
    17  C    5.988847   4.642219   4.635709   3.651051   6.570962
    18  C    2.514148   3.273172   4.504994   3.416071   1.535637
    19  C    3.677905   4.291273   3.865391   5.707422   4.802659
    20  H    2.749966   2.194604   3.441815   1.076887   2.623748
    21  H    2.111955   2.722754   4.086830   2.683153   1.094196
    22  H    2.086776   3.371977   4.499983   3.948351   1.093737
    23  H    4.563359   3.412305   2.139566   3.918058   5.910902
    24  H    2.088358   3.358122   3.834148   4.552101   2.594575
    25  H    6.648593   5.325510   5.321522   4.315158   7.173967
    26  H    6.649862   5.329310   5.325686   4.319453   7.193004
    27  H    2.779959   3.672408   4.684196   4.111466   2.174248
    28  H    2.791561   3.062122   4.260598   2.887263   2.185676
    29  H    3.452446   4.237947   5.534291   4.188147   2.168269
    30  H    5.578057   6.032245   5.322379   7.443280   6.731138
                   11         12         13         14         15
    11  C    0.000000
    12  C    1.402591   0.000000
    13  C    2.410124   1.366553   0.000000
    14  C    4.778288   4.971552   4.161921   0.000000
    15  C    4.247849   3.719202   2.462557   2.456953   0.000000
    16  C    5.042773   4.846201   3.743132   1.366384   1.458870
    17  C    2.305510   2.306847   3.650525   7.007199   6.019884
    18  C    4.683517   5.612726   5.559656   3.374309   5.133828
    19  C    6.505313   6.237120   5.047780   2.374712   2.599582
    20  H    2.123611   3.398359   3.914747   4.099428   4.735821
    21  H    4.005253   5.031704   5.084687   3.247828   4.893000
    22  H    5.312235   6.089594   5.777269   2.505752   4.791885
    23  H    3.412316   2.162350   1.080313   4.753218   2.601084
    24  H    5.733140   6.025554   5.245145   1.083355   3.428206
    25  H    3.032758   3.037285   4.321383   7.674056   6.678892
    26  H    3.035283   3.040053   4.325418   7.671918   6.683123
    27  H    5.327767   6.068881   5.819151   3.234066   5.042636
    28  H    3.989907   4.968984   5.097621   3.835184   5.117131
    29  H    5.438382   6.496957   6.556411   4.289389   6.187663
    30  H    8.073061   7.562766   6.249513   4.299875   3.862411
                   16         17         18         19         20
    16  C    0.000000
    17  C    7.077356   0.000000
    18  C    4.572775   6.818571   0.000000
    19  C    1.467012   8.500600   5.579464   0.000000
    20  H    4.917955   4.152964   2.962541   6.318716   0.000000
    21  H    4.455116   6.171052   2.186370   5.592289   2.124500
    22  H    3.865879   7.590723   2.169952   4.639576   3.657898
    23  H    4.041080   4.228797   6.497349   5.150019   4.994568
    24  H    2.103833   8.000142   3.453215   2.496021   4.771340
    25  H    7.745300   1.093563   7.207766   9.160777   4.737837
    26  H    7.742506   1.093417   7.575085   9.151354   4.744781
    27  H    4.334993   7.468524   1.094638   5.150543   3.864481
    28  H    4.857379   5.982242   1.093776   6.018539   2.439947
    29  H    5.558556   7.482028   1.095768   6.485989   3.507442
    30  H    3.228375   9.869011   7.456846   1.928786   8.145714
                   21         22         23         24         25
    21  H    0.000000
    22  H    1.756210   0.000000
    23  H    6.083085   6.635309   0.000000
    24  H    3.483430   2.198480   5.820769   0.000000
    25  H    6.834460   8.233789   4.827663   8.657834   0.000000
    26  H    6.669855   8.168160   4.832475   8.652697   1.807336
    27  H    3.089000   2.505099   6.649904   3.166279   7.809591
    28  H    2.561635   3.085368   6.064586   4.170673   6.270906
    29  H    2.508853   2.508740   7.526239   4.194193   7.842744
    30  H    7.509102   6.527730   6.039991   4.353190  10.507886
                   26         27         28         29         30
    26  H    0.000000
    27  H    8.296247   0.000000
    28  H    6.796970   1.773124   0.000000
    29  H    8.181986   1.777190   1.776961   0.000000
    30  H   10.494303   6.938674   7.863033   8.363484   0.000000
 Stoichiometry    C13H11NO5
 Framework group  C1[X(C13H11NO5)]
 Deg. of freedom    84
 Full point group                 C1      NOp   1
 Largest Abelian subgroup         C1      NOp   1
 Largest concise Abelian subgroup C1      NOp   1
                         Standard orientation:                         
 ---------------------------------------------------------------------
 Center     Atomic      Atomic             Coordinates (Angstroms)
 Number     Number       Type             X           Y           Z
 ---------------------------------------------------------------------
      1          8           0        4.075594    0.548663   -0.174370
[...]
 The electronic state is 1-A.
 Alpha  occ. eigenvalues --  -19.10409 -19.09734 -19.06680 -19.01352 -18.99515
 Alpha  occ. eigenvalues --  -14.34234 -10.26279 -10.24978 -10.21536 -10.20525
 Alpha  occ. eigenvalues --  -10.20289 -10.19807 -10.19752 -10.19628 -10.15638
 Alpha  occ. eigenvalues --  -10.14759 -10.14225 -10.14143 -10.13862  -1.13117
 Alpha  occ. eigenvalues --   -1.08951  -1.04359  -1.01707  -1.00856  -1.00018
 Alpha  occ. eigenvalues --   -0.88427  -0.83085  -0.79495  -0.77908  -0.76829
 Alpha  occ. eigenvalues --   -0.71201  -0.68427  -0.66955  -0.65083  -0.61567
 Alpha  occ. eigenvalues --   -0.61344  -0.57770  -0.55377  -0.53371  -0.52801
 Alpha  occ. eigenvalues --   -0.51238  -0.48957  -0.48431  -0.47950  -0.47237
 Alpha  occ. eigenvalues --   -0.45818  -0.45264  -0.44504  -0.43873  -0.43130
 Alpha  occ. eigenvalues --   -0.42105  -0.41188  -0.40411  -0.38898  -0.38582
 Alpha  occ. eigenvalues --   -0.38332  -0.37406  -0.36604  -0.36436  -0.35707
 Alpha  occ. eigenvalues --   -0.35618  -0.31861  -0.28704  -0.26091  -0.25863
 Alpha  occ. eigenvalues --   -0.23940  -0.22263  -0.20851
 Alpha virt. eigenvalues --   -0.04241  -0.03182   0.00979   0.04397   0.07249
 Alpha virt. eigenvalues --    0.08506   0.09326   0.10998   0.11645   0.11799
 Alpha virt. eigenvalues --    0.12636   0.13022   0.13885   0.15507   0.16247
 Alpha virt. eigenvalues --    0.16467   0.17450   0.18333   0.19168   0.19880
 Alpha virt. eigenvalues --    0.21053   0.22084   0.23539   0.25450   0.26565
 Alpha virt. eigenvalues --    0.28310   0.30075   0.30862   0.33964   0.36168
 Alpha virt. eigenvalues --    0.38898   0.40199   0.43386   0.45002   0.49269
 Alpha virt. eigenvalues --    0.53274   0.57848   0.60771   0.63033   0.64001
 Alpha virt. eigenvalues --    0.65724   0.66363   0.67812   0.68168   0.69818
 Alpha virt. eigenvalues --    0.70316   0.71136   0.72580   0.73287   0.73428
 Alpha virt. eigenvalues --    0.74789   0.75503   0.76011   0.77576   0.77893
 Alpha virt. eigenvalues --    0.78615   0.80047   0.80813   0.82992   0.83421
 Alpha virt. eigenvalues --    0.85711   0.86885   0.87716   0.88348   0.90061
 Alpha virt. eigenvalues --    0.94665   0.95325   0.97392   0.97645   0.98919
 Alpha virt. eigenvalues --    1.00504   1.01903   1.03136   1.03878   1.05878
 Alpha virt. eigenvalues --    1.08365   1.08877   1.11278   1.12814   1.16303
 Alpha virt. eigenvalues --    1.19089   1.22577   1.25345   1.28505   1.29983
 Alpha virt. eigenvalues --    1.33000   1.37693   1.38994   1.41283   1.44457
 Alpha virt. eigenvalues --    1.46756   1.47933   1.49390   1.50474   1.51971
 Alpha virt. eigenvalues --    1.55526   1.57787   1.59667   1.60988   1.62397
 Alpha virt. eigenvalues --    1.63444   1.65449   1.66445   1.68143   1.71896
 Alpha virt. eigenvalues --    1.72648   1.75084   1.79920   1.81588   1.87657
 Alpha virt. eigenvalues --    1.89705   1.93177   1.95382   1.98610   2.03481
 Alpha virt. eigenvalues --    2.07225   2.13706   2.20023   2.43359   3.00002
 Alpha virt. eigenvalues --    3.15182   3.27643   3.42752   3.45920   3.59555
          Condensed to atoms (all electrons):
               1          2          3          4          5          6
     1  O    8.245460  -0.031204   0.000000   0.000000   0.000000  -0.000001
     2  O   -0.031204   8.241883   0.000000   0.000000   0.000000   0.000000
     3  O    0.000000   0.000000   8.078805  -0.000866  -0.000001  -0.000024
     4  O    0.000000   0.000000  -0.000866   8.229410  -0.061705  -0.000001
     5  O    0.000000   0.000000  -0.000001  -0.061705   8.145997   0.000099
     6  N   -0.000001   0.000000  -0.000024  -0.000001   0.000099   7.410187
     7  C    0.002525  -0.000201   0.003241  -0.000002   0.000001   0.195687
     8  C   -0.000246   0.002491  -0.124250   0.000110  -0.000017  -0.029723
     9  C   -0.041954   0.004659   0.000001   0.000000   0.000000  -0.049772
    10  C    0.000000   0.000000   0.000000   0.000000   0.000004   0.249486
    11  C    0.238917  -0.055374  -0.000008   0.000000   0.000000   0.005077
    12  C   -0.058901   0.230843   0.000823   0.000000   0.000000  -0.000352
    13  C    0.004818  -0.043796   0.004140   0.000000   0.000000   0.005073
    14  C    0.000000   0.000000   0.003375   0.003297   0.002786   0.243358
    15  C    0.000000  -0.000005   0.632806   0.001978   0.001989  -0.035819
    16  C    0.000000   0.000000  -0.113628  -0.092769  -0.114373  -0.014605
    17  C    0.242947   0.253155   0.000000   0.000000   0.000000   0.000000
    18  C    0.000000   0.000000   0.000000   0.000000   0.000000  -0.055385
    19  C    0.000000   0.000000  -0.004140   0.223223   0.517036   0.004755
    20  H   -0.001424  -0.000002   0.000000   0.000000   0.000000  -0.006463
    21  H    0.000000   0.000000   0.000000   0.000000   0.000000  -0.033782
    22  H    0.000000   0.000000   0.000000   0.000000  -0.000005  -0.031319
    23  H   -0.000001  -0.001300   0.018538   0.000000   0.000000  -0.000006
    24  H    0.000000   0.000000  -0.000002   0.000289   0.023161  -0.033925
    25  H   -0.029912  -0.030942   0.000000   0.000000   0.000000   0.000000
    26  H   -0.030395  -0.031364   0.000000   0.000000   0.000000   0.000000
    27  H    0.000000   0.000000   0.000000   0.000000   0.000000  -0.000422
    28  H   -0.000001   0.000000   0.000000   0.000000   0.000000  -0.002206
    29  H    0.000000   0.000000   0.000000   0.000000   0.000000   0.002550
    30  H    0.000000   0.000000   0.000209   0.237120   0.004414   0.000000
               7          8          9         10         11         12
     1  O    0.002525  -0.000246  -0.041954   0.000000   0.238917  -0.058901
     2  O   -0.000201   0.002491   0.004659   0.000000  -0.055374   0.230843
     3  O    0.003241  -0.124250   0.000001   0.000000  -0.000008   0.000823
     4  O   -0.000002   0.000110   0.000000   0.000000   0.000000   0.000000
     5  O    0.000001  -0.000017   0.000000   0.000004   0.000000   0.000000
     6  N    0.195687  -0.029723  -0.049772   0.249486   0.005077  -0.000352
     7  C    5.063027   0.326254   0.367282  -0.052143  -0.033659  -0.040620
     8  C    0.326254   5.959773  -0.045453   0.001093  -0.049134  -0.052923
     9  C    0.367282  -0.045453   5.344533  -0.003474   0.319562  -0.032023
    10  C   -0.052143   0.001093  -0.003474   5.196731   0.000137   0.000000
    11  C   -0.033659  -0.049134   0.319562   0.000137   5.291472   0.130681
    12  C   -0.040620  -0.052923  -0.032023   0.000000   0.130681   5.400195
    13  C   -0.066966   0.328264  -0.042918  -0.000072  -0.020918   0.228945
    14  C   -0.067070  -0.014288   0.002542  -0.059459  -0.000102   0.000025
    15  C    0.001593  -0.015256   0.005285   0.000051  -0.000893   0.011293
    16  C   -0.024437  -0.166037  -0.000820   0.002204  -0.000011  -0.000061
    17  C   -0.000186  -0.000185   0.005539   0.000000  -0.087181  -0.090357
    18  C   -0.000395  -0.000027  -0.002239   0.263122   0.000013  -0.000002
    19  C   -0.000574   0.005797  -0.000002  -0.000043   0.000000   0.000000
    20  H   -0.044558   0.004015   0.383199   0.001289  -0.044454   0.005359
    21  H   -0.001935   0.000178   0.001613   0.367286  -0.000032  -0.000005
    22  H    0.002811  -0.000063   0.000080   0.372915  -0.000004   0.000000
    23  H    0.002996  -0.056064  -0.000346   0.000000   0.004487  -0.033839
    24  H    0.003006  -0.000497  -0.000052  -0.001828   0.000000   0.000000
    25  H    0.000001   0.000002  -0.000042   0.000000   0.002152   0.002376
    26  H    0.000001   0.000002  -0.000038   0.000000   0.002146   0.002406
    27  H    0.000005  -0.000001   0.000016  -0.039533   0.000001   0.000000
    28  H    0.001773  -0.000031   0.002729  -0.039704  -0.000018   0.000000
    29  H   -0.000004   0.000000  -0.000005  -0.035128   0.000001   0.000000
    30  H    0.000000   0.000005   0.000000   0.000000   0.000000   0.000000
              13         14         15         16         17         18
     1  O    0.004818   0.000000   0.000000   0.000000   0.242947   0.000000
     2  O   -0.043796   0.000000  -0.000005   0.000000   0.253155   0.000000
     3  O    0.004140   0.003375   0.632806  -0.113628   0.000000   0.000000
     4  O    0.000000   0.003297   0.001978  -0.092769   0.000000   0.000000
     5  O    0.000000   0.002786   0.001989  -0.114373   0.000000   0.000000
     6  N    0.005073   0.243358  -0.035819  -0.014605   0.000000  -0.055385
     7  C   -0.066966  -0.067070   0.001593  -0.024437  -0.000186  -0.000395
     8  C    0.328264  -0.014288  -0.015256  -0.166037  -0.000185  -0.000027
     9  C   -0.042918   0.002542   0.005285  -0.000820   0.005539  -0.002239
    10  C   -0.000072  -0.059459   0.000051   0.002204   0.000000   0.263122
    11  C   -0.020918  -0.000102  -0.000893  -0.000011  -0.087181   0.000013
    12  C    0.228945   0.000025   0.011293  -0.000061  -0.090357  -0.000002
    13  C    5.475826  -0.001204  -0.076200   0.014862   0.004760   0.000003
    14  C   -0.001204   5.115320  -0.024759   0.313044   0.000000   0.000042
    15  C   -0.076200  -0.024759   5.184835  -0.061004   0.000001  -0.000003
    16  C    0.014862   0.313044  -0.061004   6.447327   0.000000  -0.000057
    17  C    0.004760   0.000000   0.000001   0.000000   4.949407   0.000000
    18  C    0.000003   0.000042  -0.000003  -0.000057   0.000000   5.365612
    19  C    0.000000  -0.097099  -0.037973   0.063863   0.000000   0.000002
    20  H   -0.000651   0.000020   0.000004   0.000000  -0.000112  -0.000408
    21  H   -0.000001   0.002359   0.000002  -0.000104   0.000000  -0.049532
    22  H    0.000001   0.000006  -0.000009   0.000459   0.000000  -0.043889
    23  H    0.373083  -0.000066   0.000686   0.001548  -0.000080   0.000000
    24  H    0.000000   0.363003   0.002928  -0.059004   0.000000   0.000023
    25  H   -0.000034   0.000000   0.000000   0.000000   0.323979   0.000000
    26  H   -0.000027   0.000000   0.000000   0.000000   0.322847   0.000000
    27  H    0.000000   0.002014   0.000000  -0.000064   0.000000   0.367068
    28  H   -0.000003  -0.000077  -0.000002   0.000016   0.000000   0.367416
    29  H    0.000000  -0.000017   0.000000   0.000000   0.000000   0.351555
    30  H    0.000000  -0.000290  -0.000060   0.011843   0.000000   0.000000
              19         20         21         22         23         24
     1  O    0.000000  -0.001424   0.000000   0.000000  -0.000001   0.000000
     2  O    0.000000  -0.000002   0.000000   0.000000  -0.001300   0.000000
     3  O   -0.004140   0.000000   0.000000   0.000000   0.018538  -0.000002
     4  O    0.223223   0.000000   0.000000   0.000000   0.000000   0.000289
     5  O    0.517036   0.000000   0.000000  -0.000005   0.000000   0.023161
     6  N    0.004755  -0.006463  -0.033782  -0.031319  -0.000006  -0.033925
     7  C   -0.000574  -0.044558  -0.001935   0.002811   0.002996   0.003006
     8  C    0.005797   0.004015   0.000178  -0.000063  -0.056064  -0.000497
     9  C   -0.000002   0.383199   0.001613   0.000080  -0.000346  -0.000052
    10  C   -0.000043   0.001289   0.367286   0.372915   0.000000  -0.001828
    11  C    0.000000  -0.044454  -0.000032  -0.000004   0.004487   0.000000
    12  C    0.000000   0.005359  -0.000005   0.000000  -0.033839   0.000000
    13  C    0.000000  -0.000651  -0.000001   0.000001   0.373083   0.000000
    14  C   -0.097099   0.000020   0.002359   0.000006  -0.000066   0.363003
    15  C   -0.037973   0.000004   0.000002  -0.000009   0.000686   0.002928
    16  C    0.063863   0.000000  -0.000104   0.000459   0.001548  -0.059004
    17  C    0.000000  -0.000112   0.000000   0.000000  -0.000080   0.000000
    18  C    0.000002  -0.000408  -0.049532  -0.043889   0.000000   0.000023
    19  C    4.689173   0.000000   0.000001  -0.000016   0.000005   0.000609
    20  H    0.000000   0.489186   0.002974   0.000070   0.000002   0.000001
    21  H    0.000001   0.002974   0.509943  -0.025185   0.000000   0.000098
    22  H   -0.000016   0.000070  -0.025185   0.492081   0.000000   0.003107
    23  H    0.000005   0.000002   0.000000   0.000000   0.450820   0.000000
    24  H    0.000609   0.000001   0.000098   0.003107   0.000000   0.442432
    25  H    0.000000   0.000000   0.000000   0.000000   0.000000   0.000000
    26  H    0.000000   0.000000   0.000000   0.000000   0.000000   0.000000
    27  H    0.000000  -0.000012   0.003204  -0.002692   0.000000   0.000243
    28  H    0.000000   0.001545  -0.003044   0.002975   0.000000   0.000001
    29  H    0.000000   0.000075   0.000235  -0.000520   0.000000  -0.000010
    30  H   -0.028717   0.000000   0.000000   0.000000   0.000000  -0.000016
              25         26         27         28         29         30
     1  O   -0.029912  -0.030395   0.000000  -0.000001   0.000000   0.000000
     2  O   -0.030942  -0.031364   0.000000   0.000000   0.000000   0.000000
     3  O    0.000000   0.000000   0.000000   0.000000   0.000000   0.000209
     4  O    0.000000   0.000000   0.000000   0.000000   0.000000   0.237120
     5  O    0.000000   0.000000   0.000000   0.000000   0.000000   0.004414
     6  N    0.000000   0.000000  -0.000422  -0.002206   0.002550   0.000000
     7  C    0.000001   0.000001   0.000005   0.001773  -0.000004   0.000000
     8  C    0.000002   0.000002  -0.000001  -0.000031   0.000000   0.000005
     9  C   -0.000042  -0.000038   0.000016   0.002729  -0.000005   0.000000
    10  C    0.000000   0.000000  -0.039533  -0.039704  -0.035128   0.000000
    11  C    0.002152   0.002146   0.000001  -0.000018   0.000001   0.000000
    12  C    0.002376   0.002406   0.000000   0.000000   0.000000   0.000000
    13  C   -0.000034  -0.000027   0.000000  -0.000003   0.000000   0.000000
    14  C    0.000000   0.000000   0.002014  -0.000077  -0.000017  -0.000290
    15  C    0.000000   0.000000   0.000000  -0.000002   0.000000  -0.000060
    16  C    0.000000   0.000000  -0.000064   0.000016   0.000000   0.011843
    17  C    0.323979   0.322847   0.000000   0.000000   0.000000   0.000000
    18  C    0.000000   0.000000   0.367068   0.367416   0.351555   0.000000
    19  C    0.000000   0.000000   0.000000   0.000000   0.000000  -0.028717
    20  H    0.000000   0.000000  -0.000012   0.001545   0.000075   0.000000
    21  H    0.000000   0.000000   0.003204  -0.003044   0.000235   0.000000
    22  H    0.000000   0.000000  -0.002692   0.002975  -0.000520   0.000000
    23  H    0.000000   0.000000   0.000000   0.000000   0.000000   0.000000
    24  H    0.000000   0.000000   0.000243   0.000001  -0.000010  -0.000016
    25  H    0.559397  -0.057206   0.000000   0.000000   0.000000   0.000000
    26  H   -0.057206   0.561502   0.000000   0.000000   0.000000   0.000000
    27  H    0.000000   0.000000   0.503580  -0.024967  -0.023460   0.000000
    28  H    0.000000   0.000000  -0.024967   0.500202  -0.024370   0.000000
    29  H    0.000000   0.000000  -0.023460  -0.024370   0.526982   0.000000
    30  H    0.000000   0.000000   0.000000   0.000000   0.000000   0.415996
 Mulliken charges:
               1
     1  O   -0.540628
     2  O   -0.538843
     3  O   -0.499018
     4  O   -0.540082
     5  O   -0.519388
     6  N   -0.822467
     7  C    0.362547
     8  C   -0.073788
     9  C   -0.217901
    10  C   -0.222936
    11  C    0.297140
    12  C    0.296133
    13  C   -0.186984
    14  C    0.213240
    15  C    0.408531
    16  C   -0.208188
    17  C    0.075465
    18  C   -0.562920
    19  C    0.664101
    20  H    0.210343
    21  H    0.225726
    22  H    0.229195
    23  H    0.239537
    24  H    0.256432
    25  H    0.230227
    26  H    0.230126
    27  H    0.215021
    28  H    0.217767
    29  H    0.202117
    30  H    0.359496
 Sum of Mulliken charges =   0.00000
 Mulliken charges with hydrogens summed into heavy atoms:
               1
     1  O   -0.540628
     2  O   -0.538843
     3  O   -0.499018
     4  O   -0.180587
     5  O   -0.519388
     6  N   -0.822467
     7  C    0.362547
     8  C   -0.073788
     9  C   -0.007558
    10  C    0.231986
    11  C    0.297140
    12  C    0.296133
    13  C    0.052552
    14  C    0.469672
    15  C    0.408531
    16  C   -0.208188
    17  C    0.535818
    18  C    0.071986
    19  C    0.664101
 Electronic spatial extent (au):  <R**2>=           5533.1444
 Charge=              0.0000 electrons
 Dipole moment (field-independent basis, Debye):
    X=              3.5783    Y=              5.2578    Z=             -0.3871  Tot=              6.3717
 Quadrupole moment (field-independent basis, Debye-Ang):
   XX=            -97.5535   YY=           -105.6507   ZZ=           -108.6861
   XY=             -2.4127   XZ=             -0.3113   YZ=              0.1958
 Traceless Quadrupole moment (field-independent basis, Debye-Ang):
   XX=              6.4100   YY=             -1.6873   ZZ=             -4.7227
   XY=             -2.4127   XZ=             -0.3113   YZ=              0.1958
 Octapole moment (field-independent basis, Debye-Ang**2):
  XXX=             83.6929  YYY=             56.8928  ZZZ=              2.1565  XYY=            -16.8891
  XXY=            -64.1475  XXZ=              6.9879  XZZ=             -3.1909  YZZ=             -4.2079
  YYZ=             -6.4506  XYZ=              1.0177
 Hexadecapole moment (field-independent basis, Debye-Ang**3):
 XXXX=          -4091.6267 YYYY=          -1894.0668 ZZZZ=           -184.9397 XXXY=            203.4166
 XXXZ=            -34.2974 YYYX=              0.1165 YYYZ=             -8.9413 ZZZX=             -1.5156
 ZZZY=             -5.0780 XXYY=          -1091.2452 XXZZ=           -799.8287 YYZZ=           -353.3606
 XXYZ=              7.0387 YYXZ=              3.5501 ZZXY=              5.3475
 N-N= 1.403658838198D+03 E-N=-4.972284775614D+03  KE= 9.200820130839D+02
 1\1\GINC-NODE045\FOpt\RB3LYP\3-21G\C13H11N1O5\SUPERCOMPUTO1\06-Jul-202
 0\0\\# opt b3lyp/3-21g geom=connectivity\\Title Card Required\\0,1\O,-
 9.6880391607,6.0049505496,-6.7653393207\O,-9.3968975769,3.6617616378,-
 7.0673155171\O,-4.3447381928,2.7284846347,-7.0715203308\O,-1.673539028
 6,3.2277353014,-6.9072683015\O,-1.0028287374,5.3860954956,-6.593414210
 3\N,-4.8286886893,6.8101601063,-6.5410087393\C,-5.9674429797,5.9960427
 388,-6.6820048166\C,-5.7876755485,4.6084310075,-6.859563054\C,-7.27385
 31021,6.5427855428,-6.6408689469\C,-4.9399218934,8.2907808791,-6.41932
 23477\C,-8.3319791747,5.6794005828,-6.7762388708\C,-8.1527503555,4.301
 4360742,-6.9532144559\C,-6.9015599975,3.7534667373,-6.9969433746\C,-3.
 5950542849,6.2434930047,-6.576931893\C,-4.4448204474,3.9604049438,-6.9
 081847157\C,-3.3478415199,4.9090107912,-6.7443821875\C,-10.4142243313,
 4.7212154982,-6.9420194237\C,-5.1651690782,8.9667894218,-7.7848315349\
 C,-1.918721412,4.5656768534,-6.7368778874\H,-7.4561669754,7.5972117328
 ,-6.5099802751\H,-5.7466945993,8.5225333223,-5.7194379047\H,-4.0048145
 105,8.6391274333,-5.9738729493\H,-6.7127693297,2.6977021544,-7.1300983
 24\H,-2.7445262686,6.9047946404,-6.4588159699\H,-11.0038081686,4.77171
 05487,-7.8583900211\H,-11.026805986,4.5372489652,-6.0581726852\H,-4.32
 47760391,8.7525105398,-8.451577075\H,-6.0825359931,8.6024516991,-8.254
 9399666\H,-5.242949392,10.0511590552,-7.6532369836\H,-0.6840042269,3.1
 043981081,-6.8870479173\\Version=ES64L-G09RevD.01\State=1-A\HF=-927.74
 45565\RMSD=9.364e-09\RMSF=1.395e-05\Dipole=-1.3546649,2.1053313,0.1291
 74\Quadrupole=4.8632559,-1.3457721,-3.5174838,1.6327468,-0.0711073,-0.
 1046743\PG=C01 [X(C13H11N1O5)]\\@


 IT IS WELL TO REMEMBER THAT MAN IS A PART OF NATURE AND THAT HIS WORKS,
 WHATEVER THEY MAY BE, ARE NO MORE "UNNATURAL" THAN 
 THE FLIGHT OF AN EAGLE OR THE PASSAGE OF A TORNADO.

                                    -- CHARLES MCCARRY IN "THE GREAT SOUTHWEST"
 Job cpu time:       0 days  0 hours 32 minutes 12.9 seconds.
 File lengths (MBytes):  RWF=     26 Int=      0 D2E=      0 Chk=      4 Scr=      1
 Normal termination of Gaussian 09 at Mon Jul  6 19:07:36 2020.
