 Entering Gaussian System, Link 0=g09
 Input=perfloxacino.gjf
 Output=perfloxacino.log
 Initial command:
 /usr/local/cluster_programs/g09/l1.exe "/tmp/scratch/63938.prometeo/Gau-24387.inp" -scrdir="/tmp/scratch/63938.prometeo/"
 Entering Link 1 = /usr/local/cluster_programs/g09/l1.exe PID=     24388.
  
 Copyright (c) 1988,1990,1992,1993,1995,1998,2003,2009,2013,
            Gaussian, Inc.  All Rights Reserved.
  
 This is part of the Gaussian(R) 09 program.  It is based on
 the Gaussian(R) 03 system (copyright 2003, Gaussian, Inc.),
 the Gaussian(R) 98 system (copyright 1998, Gaussian, Inc.),
 the Gaussian(R) 94 system (copyright 1995, Gaussian, Inc.),
 the Gaussian 92(TM) system (copyright 1992, Gaussian, Inc.),
 the Gaussian 90(TM) system (copyright 1990, Gaussian, Inc.),
 the Gaussian 88(TM) system (copyright 1988, Gaussian, Inc.),
 the Gaussian 86(TM) system (copyright 1986, Carnegie Mellon
 University), and the Gaussian 82(TM) system (copyright 1983,
 Carnegie Mellon University). Gaussian is a federally registered
 trademark of Gaussian, Inc.
  
 This software contains proprietary and confidential information,
 including trade secrets, belonging to Gaussian, Inc.
  
 This software is provided under written license and may be
 used, copied, transmitted, or stored only in accord with that
 written license.
  
 The following legend is applicable only to US Government
 contracts under FAR:
  
                    RESTRICTED RIGHTS LEGEND
  
 Use, reproduction and disclosure by the US Government is
 subject to restrictions as set forth in subparagraphs (a)
 and (c) of the Commercial Computer Software - Restricted
 Rights clause in FAR 52.227-19.
  
 Gaussian, Inc.
 340 Quinnipiac St., Bldg. 40, Wallingford CT 06492
  
  
 ---------------------------------------------------------------
 Warning -- This program may not be used in any manner that
 competes with the business of Gaussian, Inc. or will provide
 assistance to any competitor of Gaussian, Inc.  The licensee
 of this program is prohibited from giving any competitor of
 Gaussian, Inc. access to this program.  By using this program,
 the user acknowledges that Gaussian, Inc. is engaged in the
 business of creating and licensing software in the field of
 computational chemistry and represents and warrants to the
 licensee that it is not a competitor of Gaussian, Inc. and that
 it will not use this program in any manner prohibited above.
 ---------------------------------------------------------------
  

 Cite this work as:
 Gaussian 09, Revision D.01,
 M. J. Frisch, G. W. Trucks, H. B. Schlegel, G. E. Scuseria, 
 M. A. Robb, J. R. Cheeseman, G. Scalmani, V. Barone, B. Mennucci, 
 G. A. Petersson, H. Nakatsuji, M. Caricato, X. Li, H. P. Hratchian, 
 A. F. Izmaylov, J. Bloino, G. Zheng, J. L. Sonnenberg, M. Hada, 
 M. Ehara, K. Toyota, R. Fukuda, J. Hasegawa, M. Ishida, T. Nakajima, 
 Y. Honda, O. Kitao, H. Nakai, T. Vreven, J. A. Montgomery, Jr., 
 J. E. Peralta, F. Ogliaro, M. Bearpark, J. J. Heyd, E. Brothers, 
 K. N. Kudin, V. N. Staroverov, T. Keith, R. Kobayashi, J. Normand, 
 K. Raghavachari, A. Rendell, J. C. Burant, S. S. Iyengar, J. Tomasi, 
 M. Cossi, N. Rega, J. M. Millam, M. Klene, J. E. Knox, J. B. Cross, 
 V. Bakken, C. Adamo, J. Jaramillo, R. Gomperts, R. E. Stratmann, 
 O. Yazyev, A. J. Austin, R. Cammi, C. Pomelli, J. W. Ochterski, 
 R. L. Martin, K. Morokuma, V. G. Zakrzewski, G. A. Voth, 
 P. Salvador, J. J. Dannenberg, S. Dapprich, A. D. Daniels, 
 O. Farkas, J. B. Foresman, J. V. Ortiz, J. Cioslowski, 
 and D. J. Fox, Gaussian, Inc., Wallingford CT, 2013.
 
 ******************************************
 Gaussian 09:  ES64L-G09RevD.01 24-Apr-2013
                 6-Jul-2020 
 ******************************************
 %nprocshared=20
 Will use up to   20 processors via shared memory.
 -----------------------------------
 # opt b3lyp/3-21g geom=connectivity
 -----------------------------------
 1/14=-1,18=20,19=15,26=3,38=1,57=2/1,3;
 2/9=110,12=2,17=6,18=5,40=1/2;
 3/5=5,11=2,16=1,25=1,30=1,71=1,74=-5/1,2,3;
 4//1;
 5/5=2,38=5/2;
 6/7=2,8=2,9=2,10=2,28=1/1;
 7//1,2,3,16;
 1/14=-1,18=20,19=15,26=3/3(2);
 2/9=110/2;
 99//99;
 2/9=110/2;
 3/5=5,11=2,16=1,25=1,30=1,71=1,74=-5/1,2,3;
 4/5=5,16=3,69=1/1;
 5/5=2,38=5/2;
 7//1,2,3,16;
 1/14=-1,18=20,19=15,26=3/3(-5);
 2/9=110/2;
 6/7=2,8=2,9=2,10=2,19=2,28=1/1;
 99/9=1/99;
 -------------------
 Title Card Required
 -------------------
 Symbolic Z-matrix:
 Charge =  0 Multiplicity = 1
 F(PDBName=F1,ResName=MOL,ResNum=1) 0    -12.486    8.101     7.255    L 
 O(PDBName=O2,ResName=MOL,ResNum=1) 0    -7.523     8.414     7.461    L 
 O(PDBName=O3,ResName=MOL,ResNum=1) 0    -4.995     9.516     7.616    L 
 O(PDBName=O4,ResName=MOL,ResNum=1) 0    -4.861     11.727    8.071    L 
 N(PDBName=N5,ResName=MOL,ResNum=1) 0    -13.534    10.676    7.593    L 
 N(PDBName=N6,ResName=MOL,ResNum=1) 0    -16.307    11.325    7.923    L 
 N(PDBName=N7,ResName=MOL,ResNum=1) 0    -8.91      12.278    7.942    L 
 C(PDBName=C8,ResName=MOL,ResNum=1) 0    -14.388    9.914     8.519    L 
 C(PDBName=C9,ResName=MOL,ResNum=1) 0    -14.014    12.041    7.409    L 
 C(PDBName=C10,ResName=MOL,ResNum=1) 0    -15.842    9.95      8.079    L 
 C(PDBName=C11,ResName=MOL,ResNum=1) 0    -15.47     12.03     6.96     L 
 C(PDBName=C12,ResName=MOL,ResNum=1) 0    -12.157    10.45     7.623    L 
 C(PDBName=C13,ResName=MOL,ResNum=1) 0    -9.838     11.24     7.756    L 
 C(PDBName=C14,ResName=MOL,ResNum=1) 0    -11.221    11.486    7.759    L 
 C(PDBName=C15,ResName=MOL,ResNum=1) 0    -17.719    11.391    7.578    L 
 C(PDBName=C16,ResName=MOL,ResNum=1) 0    -11.622    9.146     7.459    L 
 C(PDBName=C17,ResName=MOL,ResNum=1) 0    -9.347     9.929     7.602    L 
 C(PDBName=C18,ResName=MOL,ResNum=1) 0    -10.276    8.89      7.448    L 
 C(PDBName=C19,ResName=MOL,ResNum=1) 0    -9.338     13.674    8.114    L 
 C(PDBName=C20,ResName=MOL,ResNum=1) 0    -7.903     9.592     7.598    L 
 C(PDBName=C21,ResName=MOL,ResNum=1) 0    -7.585     12.       7.949    L 
 C(PDBName=C22,ResName=MOL,ResNum=1) 0    -7.031     10.751    7.784    L 
 C(PDBName=C23,ResName=MOL,ResNum=1) 0    -9.674     14.374    6.803    L 
 C(PDBName=C24,ResName=MOL,ResNum=1) 0    -5.556     10.73     7.843    L 
 H(PDBName=H25,ResName=MOL,ResNum=1) 0    -14.045    8.876     8.564    L 
 H(PDBName=H26,ResName=MOL,ResNum=1) 0    -14.307    10.35     9.535    L 
 H(PDBName=H27,ResName=MOL,ResNum=1) 0    -13.929    12.634    8.343    L 
 H(PDBName=H28,ResName=MOL,ResNum=1) 0    -13.407    12.529    6.633    L 
 H(PDBName=H29,ResName=MOL,ResNum=1) 0    -15.957    9.369     7.135    L 
 H(PDBName=H30,ResName=MOL,ResNum=1) 0    -16.457    9.459     8.849    L 
 H(PDBName=H31,ResName=MOL,ResNum=1) 0    -15.826    13.068    6.875    L 
 H(PDBName=H32,ResName=MOL,ResNum=1) 0    -15.533    11.568    5.946    L 
 H(PDBName=H33,ResName=MOL,ResNum=1) 0    -11.591    12.497    7.898    L 
 H(PDBName=H34,ResName=MOL,ResNum=1) 0    -18.037    12.441    7.514    L 
 H(PDBName=H35,ResName=MOL,ResNum=1) 0    -18.318    10.9      8.358    L 
 H(PDBName=H36,ResName=MOL,ResNum=1) 0    -17.951    10.902    6.605    L 
 H(PDBName=H37,ResName=MOL,ResNum=1) 0    -9.894     7.879     7.303    L 
 H(PDBName=H38,ResName=MOL,ResNum=1) 0    -10.191    13.691    8.806    L 
 H(PDBName=H39,ResName=MOL,ResNum=1) 0    -8.516     14.195    8.621    L 
 H(PDBName=H40,ResName=MOL,ResNum=1) 0    -6.917     12.848    8.107    L 
 H(PDBName=H41,ResName=MOL,ResNum=1) 0    -8.797     14.41     6.143    L 
 H(PDBName=H42,ResName=MOL,ResNum=1) 0    -10.485    13.868    6.263    L 
 H(PDBName=H43,ResName=MOL,ResNum=1) 0    -9.99      15.407    7.005    L 
 H(PDBName=H44,ResName=MOL,ResNum=1) 0    -4.024     9.672     7.688    L 
 
 Center=    -11.63111364     11.27700000      7.64397727
 Residue   1 PDB Number     1_0 MOL charge    0.00000000 layers R        AvRTP=      0.00000000      0.00000000      0.00000000

 GradGradGradGradGradGradGradGradGradGradGradGradGradGradGradGradGradGrad
 Berny optimization.
 Initialization pass.
                           ----------------------------
                           !    Initial Parameters    !
                           ! (Angstroms and Degrees)  !
 --------------------------                            --------------------------
 ! Name  Definition              Value          Derivative Info.                !
 --------------------------------------------------------------------------------
 ! R1    R(1,16)                 1.3712         estimate D2E/DX2                !
 ! R2    R(2,20)                 1.2453         estimate D2E/DX2                !
 ! R3    R(3,24)                 1.3565         estimate D2E/DX2                !
 ! R4    R(3,44)                 0.9861         estimate D2E/DX2                !
 ! R5    R(4,24)                 1.2365         estimate D2E/DX2                !
 ! R6    R(5,8)                  1.4722         estimate D2E/DX2                !
 ! R7    R(5,9)                  1.4586         estimate D2E/DX2                !
 ! R8    R(5,12)                 1.3957         estimate D2E/DX2                !
 ! R9    R(6,10)                 1.4599         estimate D2E/DX2                !
 ! R10   R(6,11)                 1.4577         estimate D2E/DX2                !
 ! R11   R(6,15)                 1.455          estimate D2E/DX2                !
 ! R12   R(7,13)                 1.4047         estimate D2E/DX2                !
 ! R13   R(7,19)                 1.4702         estimate D2E/DX2                !
 ! R14   R(7,21)                 1.3539         estimate D2E/DX2                !
 ! R15   R(8,10)                 1.5195         estimate D2E/DX2                !
 ! R16   R(8,25)                 1.0941         estimate D2E/DX2                !
 ! R17   R(8,26)                 1.1086         estimate D2E/DX2                !
 ! R18   R(9,11)                 1.5237         estimate D2E/DX2                !
 ! R19   R(9,27)                 1.1096         estimate D2E/DX2                !
 ! R20   R(9,28)                 1.0994         estimate D2E/DX2                !
 ! R21   R(10,29)                1.1144         estimate D2E/DX2                !
 ! R22   R(10,30)                1.101          estimate D2E/DX2                !
 ! R23   R(11,31)                1.1006         estimate D2E/DX2                !
 ! R24   R(11,32)                1.1161         estimate D2E/DX2                !
 ! R25   R(12,14)                1.4028         estimate D2E/DX2                !
 ! R26   R(12,16)                1.419          estimate D2E/DX2                !
 ! R27   R(13,14)                1.4047         estimate D2E/DX2                !
 ! R28   R(13,17)                1.4084         estimate D2E/DX2                !
 ! R29   R(14,33)                1.0855         estimate D2E/DX2                !
 ! R30   R(15,34)                1.099          estimate D2E/DX2                !
 ! R31   R(15,35)                1.0992         estimate D2E/DX2                !
 ! R32   R(15,36)                1.1134         estimate D2E/DX2                !
 ! R33   R(16,18)                1.3702         estimate D2E/DX2                !
 ! R34   R(17,18)                1.4022         estimate D2E/DX2                !
 ! R35   R(17,20)                1.4828         estimate D2E/DX2                !
 ! R36   R(18,37)                1.0904         estimate D2E/DX2                !
 ! R37   R(19,23)                1.5237         estimate D2E/DX2                !
 ! R38   R(19,38)                1.0985         estimate D2E/DX2                !
 ! R39   R(19,39)                1.0973         estimate D2E/DX2                !
 ! R40   R(20,22)                1.4623         estimate D2E/DX2                !
 ! R41   R(21,22)                1.3763         estimate D2E/DX2                !
 ! R42   R(21,40)                1.091          estimate D2E/DX2                !
 ! R43   R(22,24)                1.4763         estimate D2E/DX2                !
 ! R44   R(23,41)                1.0982         estimate D2E/DX2                !
 ! R45   R(23,42)                1.0979         estimate D2E/DX2                !
 ! R46   R(23,43)                1.099          estimate D2E/DX2                !
 ! A1    A(24,3,44)            104.6812         estimate D2E/DX2                !
 ! A2    A(8,5,9)              111.89           estimate D2E/DX2                !
 ! A3    A(8,5,12)             118.3566         estimate D2E/DX2                !
 ! A4    A(9,5,12)             118.6141         estimate D2E/DX2                !
 ! A5    A(10,6,11)            110.0732         estimate D2E/DX2                !
 ! A6    A(10,6,15)            112.1581         estimate D2E/DX2                !
 ! A7    A(11,6,15)            112.2485         estimate D2E/DX2                !
 ! A8    A(13,7,19)            121.6551         estimate D2E/DX2                !
 ! A9    A(13,7,21)            119.7026         estimate D2E/DX2                !
 ! A10   A(19,7,21)            118.6376         estimate D2E/DX2                !
 ! A11   A(5,8,10)             111.141          estimate D2E/DX2                !
 ! A12   A(5,8,25)             109.5758         estimate D2E/DX2                !
 ! A13   A(5,8,26)             109.2998         estimate D2E/DX2                !
 ! A14   A(10,8,25)            109.5333         estimate D2E/DX2                !
 ! A15   A(10,8,26)            109.025          estimate D2E/DX2                !
 ! A16   A(25,8,26)            108.2115         estimate D2E/DX2                !
 ! A17   A(5,9,11)             110.1745         estimate D2E/DX2                !
 ! A18   A(5,9,27)             111.6378         estimate D2E/DX2                !
 ! A19   A(5,9,28)             108.8283         estimate D2E/DX2                !
 ! A20   A(11,9,27)            108.9716         estimate D2E/DX2                !
 ! A21   A(11,9,28)            108.8315         estimate D2E/DX2                !
 ! A22   A(27,9,28)            108.3371         estimate D2E/DX2                !
 ! A23   A(6,10,8)             110.98           estimate D2E/DX2                !
 ! A24   A(6,10,29)            111.5712         estimate D2E/DX2                !
 ! A25   A(6,10,30)            108.4723         estimate D2E/DX2                !
 ! A26   A(8,10,29)            109.3703         estimate D2E/DX2                !
 ! A27   A(8,10,30)            108.7485         estimate D2E/DX2                !
 ! A28   A(29,10,30)           107.5943         estimate D2E/DX2                !
 ! A29   A(6,11,9)             110.9463         estimate D2E/DX2                !
 ! A30   A(6,11,31)            108.748          estimate D2E/DX2                !
 ! A31   A(6,11,32)            111.5671         estimate D2E/DX2                !
 ! A32   A(9,11,31)            108.9672         estimate D2E/DX2                !
 ! A33   A(9,11,32)            108.9448         estimate D2E/DX2                !
 ! A34   A(31,11,32)           107.576          estimate D2E/DX2                !
 ! A35   A(5,12,14)            122.7362         estimate D2E/DX2                !
 ! A36   A(5,12,16)            121.2169         estimate D2E/DX2                !
 ! A37   A(14,12,16)           115.996          estimate D2E/DX2                !
 ! A38   A(7,13,14)            121.3814         estimate D2E/DX2                !
 ! A39   A(7,13,17)            118.1651         estimate D2E/DX2                !
 ! A40   A(14,13,17)           120.4304         estimate D2E/DX2                !
 ! A41   A(12,14,13)           121.8285         estimate D2E/DX2                !
 ! A42   A(12,14,33)           118.2167         estimate D2E/DX2                !
 ! A43   A(13,14,33)           119.9313         estimate D2E/DX2                !
 ! A44   A(6,15,34)            109.7522         estimate D2E/DX2                !
 ! A45   A(6,15,35)            109.8954         estimate D2E/DX2                !
 ! A46   A(6,15,36)            112.9229         estimate D2E/DX2                !
 ! A47   A(34,15,35)           108.0846         estimate D2E/DX2                !
 ! A48   A(34,15,36)           107.9651         estimate D2E/DX2                !
 ! A49   A(35,15,36)           108.0824         estimate D2E/DX2                !
 ! A50   A(1,16,12)            118.6842         estimate D2E/DX2                !
 ! A51   A(1,16,18)            118.3861         estimate D2E/DX2                !
 ! A52   A(12,16,18)           122.8882         estimate D2E/DX2                !
 ! A53   A(13,17,18)           118.084          estimate D2E/DX2                !
 ! A54   A(13,17,20)           123.4602         estimate D2E/DX2                !
 ! A55   A(18,17,20)           118.4556         estimate D2E/DX2                !
 ! A56   A(16,18,17)           120.764          estimate D2E/DX2                !
 ! A57   A(16,18,37)           121.2269         estimate D2E/DX2                !
 ! A58   A(17,18,37)           118.0012         estimate D2E/DX2                !
 ! A59   A(7,19,23)            113.5628         estimate D2E/DX2                !
 ! A60   A(7,19,38)            108.3267         estimate D2E/DX2                !
 ! A61   A(7,19,39)            106.6662         estimate D2E/DX2                !
 ! A62   A(23,19,38)           111.3254         estimate D2E/DX2                !
 ! A63   A(23,19,39)           110.1571         estimate D2E/DX2                !
 ! A64   A(38,19,39)           106.4551         estimate D2E/DX2                !
 ! A65   A(2,20,17)            120.826          estimate D2E/DX2                !
 ! A66   A(2,20,22)            125.5754         estimate D2E/DX2                !
 ! A67   A(17,20,22)           113.5934         estimate D2E/DX2                !
 ! A68   A(7,21,22)            125.428          estimate D2E/DX2                !
 ! A69   A(7,21,40)            116.1276         estimate D2E/DX2                !
 ! A70   A(22,21,40)           118.4429         estimate D2E/DX2                !
 ! A71   A(20,22,21)           119.6371         estimate D2E/DX2                !
 ! A72   A(20,22,24)           126.1287         estimate D2E/DX2                !
 ! A73   A(21,22,24)           114.2231         estimate D2E/DX2                !
 ! A74   A(19,23,41)           110.8582         estimate D2E/DX2                !
 ! A75   A(19,23,42)           111.9845         estimate D2E/DX2                !
 ! A76   A(19,23,43)           109.6996         estimate D2E/DX2                !
 ! A77   A(41,23,42)           108.0242         estimate D2E/DX2                !
 ! A78   A(41,23,43)           108.0157         estimate D2E/DX2                !
 ! A79   A(42,23,43)           108.1327         estimate D2E/DX2                !
 ! A80   A(3,24,4)             121.3324         estimate D2E/DX2                !
 ! A81   A(3,24,22)            114.7866         estimate D2E/DX2                !
 ! A82   A(4,24,22)            123.8795         estimate D2E/DX2                !
 ! D1    D(44,3,24,4)            0.3121         estimate D2E/DX2                !
 ! D2    D(44,3,24,22)         179.8845         estimate D2E/DX2                !
 ! D3    D(9,5,8,10)            54.0526         estimate D2E/DX2                !
 ! D4    D(9,5,8,25)           175.2498         estimate D2E/DX2                !
 ! D5    D(9,5,8,26)           -66.3272         estimate D2E/DX2                !
 ! D6    D(12,5,8,10)         -162.4961         estimate D2E/DX2                !
 ! D7    D(12,5,8,25)          -41.2989         estimate D2E/DX2                !
 ! D8    D(12,5,8,26)           77.1241         estimate D2E/DX2                !
 ! D9    D(8,5,9,11)           -54.863          estimate D2E/DX2                !
 ! D10   D(8,5,9,27)            66.3593         estimate D2E/DX2                !
 ! D11   D(8,5,9,28)          -174.1122         estimate D2E/DX2                !
 ! D12   D(12,5,9,11)          161.7895         estimate D2E/DX2                !
 ! D13   D(12,5,9,27)          -76.9882         estimate D2E/DX2                !
 ! D14   D(12,5,9,28)           42.5403         estimate D2E/DX2                !
 ! D15   D(8,5,12,14)         -127.5819         estimate D2E/DX2                !
 ! D16   D(8,5,12,16)           55.1176         estimate D2E/DX2                !
 ! D17   D(9,5,12,14)           13.4087         estimate D2E/DX2                !
 ! D18   D(9,5,12,16)         -163.8918         estimate D2E/DX2                !
 ! D19   D(11,6,10,8)           57.6277         estimate D2E/DX2                !
 ! D20   D(11,6,10,29)         -64.6196         estimate D2E/DX2                !
 ! D21   D(11,6,10,30)         177.0363         estimate D2E/DX2                !
 ! D22   D(15,6,10,8)         -176.635          estimate D2E/DX2                !
 ! D23   D(15,6,10,29)          61.1177         estimate D2E/DX2                !
 ! D24   D(15,6,10,30)         -57.2264         estimate D2E/DX2                !
 ! D25   D(10,6,11,9)          -59.0018         estimate D2E/DX2                !
 ! D26   D(10,6,11,31)        -178.8332         estimate D2E/DX2                !
 ! D27   D(10,6,11,32)          62.6734         estimate D2E/DX2                !
 ! D28   D(15,6,11,9)          175.3122         estimate D2E/DX2                !
 ! D29   D(15,6,11,31)          55.4808         estimate D2E/DX2                !
 ! D30   D(15,6,11,32)         -63.0126         estimate D2E/DX2                !
 ! D31   D(10,6,15,34)         177.5178         estimate D2E/DX2                !
 ! D32   D(10,6,15,35)          58.7858         estimate D2E/DX2                !
 ! D33   D(10,6,15,36)         -61.9735         estimate D2E/DX2                !
 ! D34   D(11,6,15,34)         -57.9414         estimate D2E/DX2                !
 ! D35   D(11,6,15,35)        -176.6734         estimate D2E/DX2                !
 ! D36   D(11,6,15,36)          62.5673         estimate D2E/DX2                !
 ! D37   D(19,7,13,14)          -1.5917         estimate D2E/DX2                !
 ! D38   D(19,7,13,17)        -179.8459         estimate D2E/DX2                !
 ! D39   D(21,7,13,14)         179.2066         estimate D2E/DX2                !
 ! D40   D(21,7,13,17)           0.9523         estimate D2E/DX2                !
 ! D41   D(13,7,19,23)         -80.4147         estimate D2E/DX2                !
 ! D42   D(13,7,19,38)          43.8071         estimate D2E/DX2                !
 ! D43   D(13,7,19,39)         158.0525         estimate D2E/DX2                !
 ! D44   D(21,7,19,23)          98.7953         estimate D2E/DX2                !
 ! D45   D(21,7,19,38)        -136.9829         estimate D2E/DX2                !
 ! D46   D(21,7,19,39)         -22.7375         estimate D2E/DX2                !
 ! D47   D(13,7,21,22)           0.0764         estimate D2E/DX2                !
 ! D48   D(13,7,21,40)        -179.4621         estimate D2E/DX2                !
 ! D49   D(19,7,21,22)        -179.1494         estimate D2E/DX2                !
 ! D50   D(19,7,21,40)           1.3121         estimate D2E/DX2                !
 ! D51   D(5,8,10,6)           -55.0345         estimate D2E/DX2                !
 ! D52   D(5,8,10,29)           68.4837         estimate D2E/DX2                !
 ! D53   D(5,8,10,30)         -174.2776         estimate D2E/DX2                !
 ! D54   D(25,8,10,6)         -176.2565         estimate D2E/DX2                !
 ! D55   D(25,8,10,29)         -52.7383         estimate D2E/DX2                !
 ! D56   D(25,8,10,30)          64.5004         estimate D2E/DX2                !
 ! D57   D(26,8,10,6)           65.5076         estimate D2E/DX2                !
 ! D58   D(26,8,10,29)        -170.9742         estimate D2E/DX2                !
 ! D59   D(26,8,10,30)         -53.7354         estimate D2E/DX2                !
 ! D60   D(5,9,11,6)            57.5568         estimate D2E/DX2                !
 ! D61   D(5,9,11,31)          177.2573         estimate D2E/DX2                !
 ! D62   D(5,9,11,32)          -65.6413         estimate D2E/DX2                !
 ! D63   D(27,9,11,6)          -65.2438         estimate D2E/DX2                !
 ! D64   D(27,9,11,31)          54.4568         estimate D2E/DX2                !
 ! D65   D(27,9,11,32)         171.5581         estimate D2E/DX2                !
 ! D66   D(28,9,11,6)          176.804          estimate D2E/DX2                !
 ! D67   D(28,9,11,31)         -63.4954         estimate D2E/DX2                !
 ! D68   D(28,9,11,32)          53.6059         estimate D2E/DX2                !
 ! D69   D(5,12,14,13)        -178.5061         estimate D2E/DX2                !
 ! D70   D(5,12,14,33)           3.2614         estimate D2E/DX2                !
 ! D71   D(16,12,14,13)         -1.0746         estimate D2E/DX2                !
 ! D72   D(16,12,14,33)       -179.307          estimate D2E/DX2                !
 ! D73   D(5,12,16,1)            0.6483         estimate D2E/DX2                !
 ! D74   D(5,12,16,18)         178.2638         estimate D2E/DX2                !
 ! D75   D(14,12,16,1)        -176.8254         estimate D2E/DX2                !
 ! D76   D(14,12,16,18)          0.7901         estimate D2E/DX2                !
 ! D77   D(7,13,14,12)        -177.6304         estimate D2E/DX2                !
 ! D78   D(7,13,14,33)           0.5724         estimate D2E/DX2                !
 ! D79   D(17,13,14,12)          0.5846         estimate D2E/DX2                !
 ! D80   D(17,13,14,33)        178.7874         estimate D2E/DX2                !
 ! D81   D(7,13,17,18)         178.5245         estimate D2E/DX2                !
 ! D82   D(7,13,17,20)          -1.3081         estimate D2E/DX2                !
 ! D83   D(14,13,17,18)          0.253          estimate D2E/DX2                !
 ! D84   D(14,13,17,20)       -179.5796         estimate D2E/DX2                !
 ! D85   D(1,16,18,17)         177.6307         estimate D2E/DX2                !
 ! D86   D(1,16,18,37)          -1.3247         estimate D2E/DX2                !
 ! D87   D(12,16,18,17)          0.0085         estimate D2E/DX2                !
 ! D88   D(12,16,18,37)       -178.947          estimate D2E/DX2                !
 ! D89   D(13,17,18,16)         -0.5421         estimate D2E/DX2                !
 ! D90   D(13,17,18,37)        178.4463         estimate D2E/DX2                !
 ! D91   D(20,17,18,16)        179.2991         estimate D2E/DX2                !
 ! D92   D(20,17,18,37)         -1.7126         estimate D2E/DX2                !
 ! D93   D(13,17,20,2)         179.8391         estimate D2E/DX2                !
 ! D94   D(13,17,20,22)          0.6184         estimate D2E/DX2                !
 ! D95   D(18,17,20,2)           0.007          estimate D2E/DX2                !
 ! D96   D(18,17,20,22)       -179.2137         estimate D2E/DX2                !
 ! D97   D(7,19,23,41)         -61.0971         estimate D2E/DX2                !
 ! D98   D(7,19,23,42)          59.6272         estimate D2E/DX2                !
 ! D99   D(7,19,23,43)         179.6957         estimate D2E/DX2                !
 ! D100  D(38,19,23,41)        176.3208         estimate D2E/DX2                !
 ! D101  D(38,19,23,42)        -62.9548         estimate D2E/DX2                !
 ! D102  D(38,19,23,43)         57.1137         estimate D2E/DX2                !
 ! D103  D(39,19,23,41)         58.4662         estimate D2E/DX2                !
 ! D104  D(39,19,23,42)        179.1906         estimate D2E/DX2                !
 ! D105  D(39,19,23,43)        -60.7409         estimate D2E/DX2                !
 ! D106  D(2,20,22,21)        -178.7681         estimate D2E/DX2                !
 ! D107  D(2,20,22,24)          -0.052          estimate D2E/DX2                !
 ! D108  D(17,20,22,21)          0.4091         estimate D2E/DX2                !
 ! D109  D(17,20,22,24)        179.1252         estimate D2E/DX2                !
 ! D110  D(7,21,22,20)          -0.7819         estimate D2E/DX2                !
 ! D111  D(7,21,22,24)        -179.6448         estimate D2E/DX2                !
 ! D112  D(40,21,22,20)        178.7468         estimate D2E/DX2                !
 ! D113  D(40,21,22,24)         -0.1161         estimate D2E/DX2                !
 ! D114  D(20,22,24,3)           4.3311         estimate D2E/DX2                !
 ! D115  D(20,22,24,4)        -176.1088         estimate D2E/DX2                !
 ! D116  D(21,22,24,3)        -176.8925         estimate D2E/DX2                !
 ! D117  D(21,22,24,4)           2.6675         estimate D2E/DX2                !
 --------------------------------------------------------------------------------
 Trust Radius=3.00D-01 FncErr=1.00D-07 GrdErr=1.00D-06
 Number of steps in this run=    255 maximum allowed number of steps=    264.
 GradGradGradGradGradGradGradGradGradGradGradGradGradGradGradGradGradGrad

                          Input orientation:                          
 ---------------------------------------------------------------------
 Center     Atomic      Atomic             Coordinates (Angstroms)
 Number     Number       Type             X           Y           Z
 ---------------------------------------------------------------------
      1          9           0      -12.486000    8.101000    7.255000
      2          8           0       -7.523000    8.414000    7.461000
      3          8           0       -4.995000    9.516000    7.616000
      4          8           0       -4.861000   11.727000    8.071000
      5          7           0      -13.534000   10.676000    7.593000
      6          7           0      -16.307000   11.325000    7.923000
      7          7           0       -8.910000   12.278000    7.942000
      8          6           0      -14.388000    9.914000    8.519000
      9          6           0      -14.014000   12.041000    7.409000
     10          6           0      -15.842000    9.950000    8.079000
     11          6           0      -15.470000   12.030000    6.960000
     12          6           0      -12.157000   10.450000    7.623000
     13          6           0       -9.838000   11.240000    7.756000
     14          6           0      -11.221000   11.486000    7.759000
     15          6           0      -17.719000   11.391000    7.578000
     16          6           0      -11.622000    9.146000    7.459000
     17          6           0       -9.347000    9.929000    7.602000
     18          6           0      -10.276000    8.890000    7.448000
     19          6           0       -9.338000   13.674000    8.114000
     20          6           0       -7.903000    9.592000    7.598000
     21          6           0       -7.585000   12.000000    7.949000
     22          6           0       -7.031000   10.751000    7.784000
     23          6           0       -9.674000   14.374000    6.803000
     24          6           0       -5.556000   10.730000    7.843000
     25          1           0      -14.045000    8.876000    8.564000
     26          1           0      -14.307000   10.350000    9.535000
     27          1           0      -13.929000   12.634000    8.343000
     28          1           0      -13.407000   12.529000    6.633000
     29          1           0      -15.957000    9.369000    7.135000
     30          1           0      -16.457000    9.459000    8.849000
     31          1           0      -15.826000   13.068000    6.875000
     32          1           0      -15.533000   11.568000    5.946000
     33          1           0      -11.591000   12.497000    7.898000
     34          1           0      -18.037000   12.441000    7.514000
     35          1           0      -18.318000   10.900000    8.358000
     36          1           0      -17.951000   10.902000    6.605000
     37          1           0       -9.894000    7.879000    7.303000
     38          1           0      -10.191000   13.691000    8.806000
     39          1           0       -8.516000   14.195000    8.621000
     40          1           0       -6.917000   12.848000    8.107000
     41          1           0       -8.797000   14.410000    6.143000
     42          1           0      -10.485000   13.868000    6.263000
     43          1           0       -9.990000   15.407000    7.005000
     44          1           0       -4.024000    9.672000    7.688000
 ---------------------------------------------------------------------
                    Distance matrix (angstroms):
                    1          2          3          4          5
     1  F    0.000000
     2  O    4.977125   0.000000
     3  O    7.632013   2.762103   0.000000
     4  O    8.482591   4.293520   2.261305   0.000000
     5  N    2.800567   6.423876   8.617462   8.749515   0.000000
     6  N    5.043852   9.265313  11.459846  11.454013   2.866990
     7  N    5.541396   4.133476   4.802306   4.088355   4.906076
     8  C    2.915865   7.106166   9.444695   9.708316   1.472221
     9  C    4.228723   7.435786   9.368075   9.182279   1.458589
    10  C    3.919249   8.482157  10.865548  11.123855   2.467820
    11  C    4.942502   8.745357  10.792412  10.671317   2.445833
    12  C    2.400305   5.064138   7.222648   7.420448   1.395745
    13  C    4.137176   3.665041   5.142609   5.010681   3.742336
    14  C    3.648625   4.816762   6.531801   6.372207   2.456344
    15  C    6.189727  10.622365  12.861464  12.871834   4.245665
    16  C    1.371181   4.163848   6.639178   7.262729   2.452468
    17  C    3.649015   2.375307   4.371575   4.855611   4.253123
    18  C    2.354542   2.793878   5.320626   6.144829   3.718250
    19  C    6.458027   5.602520   6.033127   4.882232   5.183229
    20  C    4.831627   1.245332   2.909049   3.746427   5.734391
    21  C    6.301082   3.619583   3.604060   2.740363   6.104942
    22  C    6.087640   2.409971   2.387204   2.396632   6.506237
    23  C    6.889280   6.370350   6.793686   5.637322   5.403601
    24  C    7.435206   3.062494   1.356483   1.236535   7.982099
    25  H    2.178207   6.630727   9.121996   9.628972   2.108071
    26  H    3.684080   7.353382   9.544185   9.657450   2.115460
    27  H    4.879967   7.721603   9.490353   9.117305   2.133609
    28  H    4.565338   7.227743   8.989227   8.703170   2.090774
    29  H    3.697305   8.494154  10.973532  11.382332   2.790868
    30  H    4.489303   9.101369  11.528269  11.841297   3.406252
    31  H    5.997590   9.536400  11.422624  11.111252   3.389757
    32  H    4.797685   8.740883  10.865038  10.882669   2.739393
    33  H    4.532029   5.780180   7.243832   6.776115   2.680357
    34  H    7.050977  11.258940  13.366368  13.207082   4.837197
    35  H    6.562258  11.113813  13.415228  13.485442   4.849954
    36  H    6.175300  10.754816  13.069088  13.197647   4.531789
    37  H    2.601932   2.435740   5.174740   6.381851   4.599664
    38  H    6.238648   6.064155   6.770904   5.727689   4.662322
    39  H    7.400249   5.979265   5.941423   4.444384   6.214537
    40  H    7.367067   4.521605   3.877807   2.342023   6.983299
    41  H    7.392479   6.269945   6.369943   5.138849   6.203582
    42  H    6.184364   6.320978   7.135167   6.283480   4.610224
    43  H    7.724646   7.429406   7.747724   6.401984   5.940374
    44  H    8.617481   3.725197   0.986084   2.251729   9.563323
                    6          7          8          9         10
     6  N    0.000000
     7  N    7.458162   0.000000
     8  C    2.455341   5.994156   0.000000
     9  C    2.456563   5.137224   2.428190   0.000000
    10  C    1.459858   7.313753   1.519543   2.857055   0.000000
    11  C    1.457725   6.637728   2.842299   1.523699   2.391013
    12  C    4.251838   3.739833   2.463224   2.454695   3.746620
    13  C    6.471713   1.404715   4.800307   4.266261   6.149508
    14  C    5.091190   2.449791   3.616445   2.869037   4.880096
    15  C    1.455034   8.861024   3.763319   3.765380   2.418804
    16  C    5.187732   4.171050   3.060095   3.755688   4.340417
    17  C    7.105875   2.413373   5.123748   5.126274   6.512526
    18  C    6.521335   3.686263   4.370831   4.889066   5.701063
    19  C    7.356714   1.470233   6.309051   5.002868   7.494759
    20  C    8.586974   2.889114   6.557984   6.586171   7.961611
    21  C    8.748119   1.353868   7.138425   6.451769   8.508669
    22  C    9.294782   2.426383   7.440850   7.111049   8.852251
    23  C    7.385627   2.504842   6.712529   4.964446   7.697024
    24  C   10.767749   3.695324   8.895339   8.569997  10.318231
    25  H    3.394868   6.191019   1.094129   3.369304   2.148932
    26  H    2.747575   5.948314   1.108563   2.732253   2.153175
    27  H    2.746774   5.047564   2.764065   1.109608   3.306527
    28  H    3.394660   4.690361   3.370101   1.099440   3.830324
    29  H    2.137611   7.666403   2.162000   3.315103   1.114416
    30  H    2.088524   8.107196   2.143988   3.835176   1.101002
    31  H    2.089908   7.042276   3.836443   2.150170   3.342424
    32  H    2.136973   6.953578   3.266048   2.161356   2.695013
    33  H    4.859513   2.690290   3.857556   2.513560   4.958928
    34  H    2.098961   9.138484   4.550929   4.044200   3.367838
    35  H    2.100945   9.517479   4.054999   4.552680   2.666630
    36  H    2.149137   9.242328   4.163473   4.176566   2.743513
    37  H    7.306565   4.552777   5.080937   5.857293   6.345859
    38  H    6.616880   2.093807   5.653575   4.391974   6.815967
    39  H    8.332094   2.071513   7.267582   6.027990   8.484342
    40  H    9.514488   2.079465   8.037036   7.176758   9.383753
    41  H    8.311782   2.791880   7.557690   5.867879   8.559890
    42  H    6.566440   2.797815   5.996421   4.135830   6.880845
    43  H    7.576935   3.440205   7.197753   5.261725   8.073303
    44  H   12.395956   5.543352  10.400078  10.270837  11.827734
                   11         12         13         14         15
    11  C    0.000000
    12  C    3.729871   0.000000
    13  C    5.742573   2.453477   0.000000
    14  C    4.357561   1.402814   1.404711   0.000000
    15  C    2.418315   5.641219   7.884456   6.501215   0.000000
    16  C    4.834621   1.418992   2.766894   2.392990   6.498276
    17  C    6.505190   2.857968   1.408374   2.441470   8.498730
    18  C    6.088956   2.449977   2.410230   2.780101   7.853034
    19  C    6.452587   4.310686   2.510482   2.908446   8.702904
    20  C    7.975611   4.339736   2.546585   3.823909   9.979512
    21  C    7.946839   4.838591   2.385552   3.677063  10.159059
    22  C    8.575053   5.137353   2.849413   4.254051  10.709126
    23  C    6.254007   4.715450   3.279796   3.412871   8.615158
    24  C   10.037783   6.610598   4.313142   5.715839  12.183830
    25  H    3.814598   2.632015   4.892873   3.928753   4.560230
    26  H    3.287186   2.878931   4.891718   3.737388   4.068817
    27  H    2.156893   2.903143   4.361661   2.998704   4.061327
    28  H    2.147533   2.620084   3.957324   2.671015   4.558664
    29  H    2.710851   3.980792   6.428720   5.225013   2.718341
    30  H    3.339541   4.579864   6.941021   5.719486   2.634523
    31  H    1.100638   4.568916   6.322491   4.948758   2.624878
    32  H    1.116069   3.931873   5.984706   4.678358   2.733743
    33  H    4.018031   2.141539   2.161764   1.085515   6.235224
    34  H    2.658068   6.208894   8.290028   6.886937   1.098963
    35  H    3.367849   6.220984   8.508138   7.146300   1.099219
    36  H    2.748412   5.900090   8.201208   6.853151   1.113406
    37  H    6.959901   3.440001   3.391853   3.870312   8.581398
    38  H    5.833908   3.970986   2.689704   2.649365   7.966729
    39  H    7.470225   5.317698   3.350811   3.924124   9.677059
    40  H    8.668249   5.782928   3.352776   4.527755  10.912648
    41  H    7.131677   5.400148   3.705988   4.127591   9.527627
    42  H    5.358571   4.040781   3.090961   2.907514   7.758577
    43  H    6.437123   5.445150   4.236861   4.178291   8.728919
    44  H   11.709016   8.170385   6.022113   7.422429  13.802901
                   16         17         18         19         20
    16  C    0.000000
    17  C    2.410221   0.000000
    18  C    1.370173   1.402240   0.000000
    19  C    5.113557   3.779848   4.920372   0.000000
    20  C    3.748226   1.482808   2.479200   4.357546   0.000000
    21  C    4.968177   2.741185   4.143016   2.429508   2.454137
    22  C    4.874313   2.464278   3.755828   3.738326   1.462279
    23  C    5.617564   4.528063   5.554519   1.523685   5.161007
    24  C    6.281152   3.882185   5.081341   4.800427   2.619824
    25  H    2.676724   4.909731   3.930778   6.736405   6.258592
    26  H    3.601197   5.339975   4.768242   6.144850   6.733331
    27  H    4.274324   5.372228   5.306879   4.712889   6.791279
    28  H    3.913207   4.917577   4.869261   4.478967   6.312781
    29  H    4.352807   6.650097   5.709744   7.956295   8.070379
    30  H    5.040565   7.233810   6.363279   8.305818   8.646017
    31  H    5.778993   7.235972   6.970403   6.632986   8.682122
    32  H    4.842641   6.610238   6.087999   6.893003   8.052986
    33  H    3.379776   3.423124   3.865511   2.551077   4.704293
    34  H    7.211954   9.046214   8.535050   8.806412  10.527194
    35  H    6.980053   9.055011   8.339182   9.401862  10.524290
    36  H    6.623375   8.716052   7.978999   9.173049  10.181574
    37  H    2.148397   2.142688   1.090445   5.877830   2.643005
    38  H    4.951686   4.039133   4.990089   1.098527   4.847268
    39  H    6.040685   4.464043   5.711090   1.097349   4.754988
    40  H    6.021772   3.831512   5.232870   2.558039   3.439886
    41  H    6.117367   4.744528   5.861814   2.172376   5.111691
    42  H    5.002046   4.313199   5.121366   2.186194   5.170409
    43  H    6.486113   5.547823   6.538297   2.158304   6.206565
    44  H    7.619627   5.329894   6.305286   6.666039   3.880869
                   21         22         23         24         25
    21  C    0.000000
    22  C    1.376278   0.000000
    23  C    3.363497   4.590636   0.000000
    24  C    2.396034   1.476329   5.596272   0.000000
    25  H    7.202028   7.302070   7.241185   8.718961   0.000000
    26  H    7.100928   7.494463   6.717223   8.921169   1.784422
    27  H    6.387764   7.172208   4.848116   8.601299   3.766279
    28  H    5.992277   6.718591   4.167519   8.144857   4.180935
    29  H    8.813350   9.055639   8.039673  10.513533   2.437383
    30  H    9.272490   9.573556   8.622786  11.020857   2.497771
    31  H    8.379032   9.140394   6.289509  10.577153   4.857731
    32  H    8.207883   8.736689   6.552554  10.190259   4.039175
    33  H    4.037034   4.884170   2.897765   6.288604   4.424626
    34  H   10.470340  11.138269   8.612884  12.602029   5.454153
    35  H   10.796970  11.302568   9.444863  12.773518   4.732604
    36  H   10.510276  10.984500   8.977902  12.457859   4.816554
    37  H    4.767750   4.083689   6.517931   5.219008   4.451397
    38  H    3.222602   4.435503   2.178483   5.583737   6.172204
    39  H    2.477170   3.842776   2.162898   4.623106   7.672343
    40  H    1.091005   2.124790   3.410299   2.531391   8.172761
    41  H    3.246333   4.381771   1.098192   5.190037   8.001744
    42  H    3.839534   4.894818   1.097888   6.052973   6.548913
    43  H    4.275840   5.571432   1.098976   6.498994   7.843945
    44  H    4.262444   3.196171   7.403683   1.868265  10.090661
                   26         27         28         29         30
    26  H    0.000000
    27  H    2.603921   0.000000
    28  H    3.738936   1.790980   0.000000
    29  H    3.073249   4.028930   4.091467   0.000000
    30  H    2.426309   4.089920   4.861898   1.787707   0.000000
    31  H    4.095178   2.437620   2.490110   3.710440   4.161697
    32  H    3.983406   3.074863   2.432153   2.535567   3.705275
    33  H    3.829626   2.383912   2.213392   5.424805   5.814792
    34  H    4.729653   4.195254   4.713895   3.729239   3.629180
    35  H    4.216153   4.719142   5.454098   3.068226   2.404347
    36  H    4.708327   4.711364   4.826577   2.570413   3.057748
    37  H    5.528312   6.322409   5.866223   6.245662   6.925279
    38  H    5.351185   3.912066   4.051522   7.397208   7.561377
    39  H    7.011070   5.640441   5.536206   8.992605   9.248846
    40  H    7.930403   7.019233   6.662923   9.734979  10.151231
    41  H    7.638676   5.859317   5.003035   8.812567   9.513697
    42  H    6.139218   4.208360   3.235414   7.137518   7.860754
    43  H    7.114115   4.999549   4.482985   8.489961   8.977813
    44  H   10.469536  10.359126   9.864895  11.949649  12.488906
                   31         32         33         34         35
    31  H    0.000000
    32  H    1.788544   0.000000
    33  H    4.394064   4.495855   0.000000
    34  H    2.385366   3.080709   6.457670   0.000000
    35  H    3.620715   3.744355   6.929252   1.779320   0.000000
    36  H    3.046323   2.593176   6.683223   1.789469   1.791006
    37  H    7.892878   6.873754   4.955780   9.336210   9.011284
    38  H    5.989166   6.420568   2.051853   8.049315   8.604564
    39  H    7.599654   7.955818   3.586301   9.744301  10.344341
    40  H    8.996472   8.974618   4.691818  11.143236  11.568946
    41  H    7.193304   7.313649   3.813926   9.546424  10.386326
    42  H    5.435147   5.556329   2.403352   7.786786   8.634462
    43  H    6.288618   6.825266   3.439295   8.591301   9.565524
    44  H   12.307761  11.793492   8.079865  14.285020  14.362288
                   36         37         38         39         40
    36  H    0.000000
    37  H    8.633712   0.000000
    38  H    8.534666   6.010538   0.000000
    39  H   10.194475   6.597565   1.758939   0.000000
    40  H   11.304516   5.848069   3.452293   2.152999   0.000000
    41  H    9.814032   6.723315   3.090593   2.503132   3.135529
    42  H    8.040850   6.107291   2.566050   3.089345   4.143834
    43  H    9.156011   7.534508   2.495728   2.500615   4.148037
    44  H   14.023092   6.149795   7.445413   6.442521   4.316478
                   41         42         43         44
    41  H    0.000000
    42  H    1.776938   0.000000
    43  H    1.777724   1.778795   0.000000
    44  H    6.900522   7.834639   8.303606   0.000000
 Stoichiometry    C17H20FN3O3
 Framework group  C1[X(C17H20FN3O3)]
 Deg. of freedom   126
 Full point group                 C1      NOp   1
 Largest Abelian subgroup         C1      NOp   1
 Largest concise Abelian subgroup C1      NOp   1
                         Standard orientation:                         
 ---------------------------------------------------------------------
 Center     Atomic      Atomic             Coordinates (Angstroms)
 Number     Number       Type             X           Y           Z
 ---------------------------------------------------------------------
      1          9           0       -1.599172   -2.777628   -0.433344
      2          8           0        3.361382   -2.405336   -0.271853
      3          8           0        5.876921   -1.274076   -0.125130
      4          8           0        5.988011    0.931286    0.362250
      5          7           0       -2.675640   -0.221442   -0.045651
      6          7           0       -5.453016    0.387524    0.321734
      7          7           0        1.931374    1.433165    0.281878
      8          6           0       -3.510688   -1.008078    0.877028
      9          6           0       -3.174414    1.140039   -0.203998
     10          6           0       -4.969399   -0.983720    0.452082
     11          6           0       -4.634632    1.117518   -0.638641
     12          6           0       -1.295703   -0.430519   -0.032776
     13          6           0        1.014520    0.386503    0.089258
     14          6           0       -0.371331    0.615001    0.109743
     15          6           0       -6.869145    0.440965   -0.008186
     16          6           0       -0.746215   -1.725046   -0.221984
     17          6           0        1.520202   -0.915728   -0.089623
     18          6           0        0.602684   -1.963886   -0.250254
     19          6           0        1.487809    2.820899    0.479429
     20          6           0        2.968167   -1.234424   -0.113103
     21          6           0        3.259732    1.171792    0.271478
     22          6           0        3.827524   -0.067491    0.081921
     23          6           0        1.129886    3.536403   -0.817322
     24          6           0        5.303192   -0.070814    0.125951
     25          1           0       -3.154368   -2.042241    0.902755
     26          1           0       -3.424843   -0.586541    1.898718
     27          1           0       -3.087352    1.719839    0.738065
     28          1           0       -2.581410    1.647346   -0.978437
     29          1           0       -5.086708   -1.551748   -0.499498
     30          1           0       -5.570425   -1.494036    1.220555
     31          1           0       -5.004354    2.152123   -0.704232
     32          1           0       -4.702136    0.670182   -1.658907
     33          1           0       -0.752450    1.619040    0.267841
     34          1           0       -7.200809    1.487728   -0.052975
     35          1           0       -7.454073   -0.069301    0.770127
     36          1           0       -7.104877   -0.036114   -0.986194
     37          1           0        0.995741   -2.967684   -0.414470
     38          1           0        0.641707    2.816671    1.180040
     39          1           0        2.308353    3.344462    0.986148
     40          1           0        3.918699    2.025641    0.435780
     41          1           0        1.999650    3.593438   -1.485367
     42          1           0        0.319820    3.028476   -1.356915
     43          1           0        0.803124    4.562163   -0.596434
     44          1           0        6.846584   -1.106975   -0.060395
 ---------------------------------------------------------------------
 Rotational constants (GHZ):      0.5559903      0.1096716      0.0936470
 Standard basis: 3-21G (6D, 7F)
 There are   256 symmetry adapted cartesian basis functions of A   symmetry.
 There are   256 symmetry adapted basis functions of A   symmetry.
   256 basis functions,   420 primitive gaussians,   256 cartesian basis functions
    88 alpha electrons       88 beta electrons
       nuclear repulsion energy      2069.3194254705 Hartrees.
 NAtoms=   44 NActive=   44 NUniq=   44 SFac= 1.00D+00 NAtFMM=   60 NAOKFM=F Big=F
 Integral buffers will be    131072 words long.
 Raffenetti 2 integral format.
 Two-electron integral symmetry is turned on.
 One-electron integrals computed using PRISM.
 PrsmSu:  requested number of processors reduced to:   9 ShMem   1 Linda.
 NBasis=   256 RedAO= T EigKep=  1.23D-03  NBF=   256
 NBsUse=   256 1.00D-06 EigRej= -1.00D+00 NBFU=   256
 ExpMin= 1.83D-01 ExpMax= 4.14D+02 ExpMxC= 4.14D+02 IAcc=1 IRadAn=         1 AccDes= 0.00D+00
 Harris functional with IExCor=  402 and IRadAn=       1 diagonalized for initial guess.
 HarFok:  IExCor=  402 AccDes= 0.00D+00 IRadAn=         1 IDoV= 1 UseB2=F ITyADJ=14
 ICtDFT=  3500011 ScaDFX=  1.000000  1.000000  1.000000  1.000000
 FoFCou: FMM=F IPFlag=           0 FMFlag=      100000 FMFlg1=           0
         NFxFlg=           0 DoJE=T BraDBF=F KetDBF=T FulRan=T
         wScrn=  0.000000 ICntrl=     500 IOpCl=  0 I1Cent=   200000004 NGrid=           0
         NMat0=    1 NMatS0=      1 NMatT0=    0 NMatD0=    1 NMtDS0=    0 NMtDT0=    0
 Petite list used in FoFCou.
 Requested convergence on RMS density matrix=1.00D-08 within 128 cycles.
 Requested convergence on MAX density matrix=1.00D-06.
 Requested convergence on             energy=1.00D-06.
 No special actions if energy rises.
 Integral accuracy reduced to 1.0D-05 until final iterations.
 Initial convergence to 1.0D-05 achieved.  Increase integral accuracy.
 SCF Done:  E(RB3LYP) =  -1143.32753277     A.U. after   16 cycles
            NFock= 16  Conv=0.81D-08     -V/T= 2.0082

 **********************************************************************

            Population analysis using the SCF density.

 **********************************************************************

 Orbital symmetries:
       Occupied  (A) (A) (A) (A) (A) (A) (A) (A) (A) (A) (A) (A)
                 (A) (A) (A) (A) (A) (A) (A) (A) (A) (A) (A) (A)
                 (A) (A) (A) (A) (A) (A) (A) (A) (A) (A) (A) (A)
                 (A) (A) (A) (A) (A) (A) (A) (A) (A) (A) (A) (A)
                 (A) (A) (A) (A) (A) (A) (A) (A) (A) (A) (A) (A)
                 (A) (A) (A) (A) (A) (A) (A) (A) (A) (A) (A) (A)
                 (A) (A) (A) (A) (A) (A) (A) (A) (A) (A) (A) (A)
                 (A) (A) (A) (A)
       Virtual   (A) (A) (A) (A) (A) (A) (A) (A) (A) (A) (A) (A)
                 (A) (A) (A) (A) (A) (A) (A) (A) (A) (A) (A) (A)
                 (A) (A) (A) (A) (A) (A) (A) (A) (A) (A) (A) (A)
                 (A) (A) (A) (A) (A) (A) (A) (A) (A) (A) (A) (A)
                 (A) (A) (A) (A) (A) (A) (A) (A) (A) (A) (A) (A)
                 (A) (A) (A) (A) (A) (A) (A) (A) (A) (A) (A) (A)
                 (A) (A) (A) (A) (A) (A) (A) (A) (A) (A) (A) (A)
                 (A) (A) (A) (A) (A) (A) (A) (A) (A) (A) (A) (A)
                 (A) (A) (A) (A) (A) (A) (A) (A) (A) (A) (A) (A)
                 (A) (A) (A) (A) (A) (A) (A) (A) (A) (A) (A) (A)
                 (A) (A) (A) (A) (A) (A) (A) (A) (A) (A) (A) (A)
                 (A) (A) (A) (A) (A) (A) (A) (A) (A) (A) (A) (A)
                 (A) (A) (A) (A) (A) (A) (A) (A) (A) (A) (A) (A)
                 (A) (A) (A) (A) (A) (A) (A) (A) (A) (A) (A) (A)
 The electronic state is 1-A.
 Alpha  occ. eigenvalues --  -24.57351 -19.06790 -19.01101 -18.99210 -14.33959
 Alpha  occ. eigenvalues --  -14.28357 -14.25180 -10.24875 -10.21473 -10.19747
 Alpha  occ. eigenvalues --  -10.19598 -10.19554 -10.19468 -10.19305 -10.16892
 Alpha  occ. eigenvalues --  -10.16099 -10.15856 -10.15423 -10.14830 -10.14813
 Alpha  occ. eigenvalues --  -10.14245 -10.14209 -10.13809 -10.13759  -1.21035
 Alpha  occ. eigenvalues --   -1.09753  -1.01772  -1.00839  -1.00148  -0.97724
 Alpha  occ. eigenvalues --   -0.93469  -0.87271  -0.82921  -0.79038  -0.78381
 Alpha  occ. eigenvalues --   -0.78046  -0.76188  -0.73213  -0.68353  -0.67782
 Alpha  occ. eigenvalues --   -0.66865  -0.65708  -0.63938  -0.61255  -0.60507
 Alpha  occ. eigenvalues --   -0.58163  -0.55635  -0.54696  -0.54098  -0.52127
 Alpha  occ. eigenvalues --   -0.50452  -0.48594  -0.48291  -0.48043  -0.47827
 Alpha  occ. eigenvalues --   -0.47462  -0.47102  -0.46237  -0.45764  -0.44989
 Alpha  occ. eigenvalues --   -0.44608  -0.44513  -0.44179  -0.43365  -0.41777
 Alpha  occ. eigenvalues --   -0.41493  -0.41360  -0.40383  -0.39791  -0.39150
 Alpha  occ. eigenvalues --   -0.38478  -0.38113  -0.37581  -0.36677  -0.36404
 Alpha  occ. eigenvalues --   -0.35924  -0.35792  -0.35496  -0.34852  -0.34113
 Alpha  occ. eigenvalues --   -0.29358  -0.28500  -0.26360  -0.25767  -0.22111
 Alpha  occ. eigenvalues --   -0.22044  -0.21327  -0.20590
 Alpha virt. eigenvalues --   -0.04124  -0.03174   0.01300   0.04351   0.07924
 Alpha virt. eigenvalues --    0.08903   0.09385   0.11264   0.11491   0.12231
 Alpha virt. eigenvalues --    0.12729   0.13070   0.13560   0.14231   0.14754
 Alpha virt. eigenvalues --    0.16043   0.16099   0.16460   0.17005   0.17441
 Alpha virt. eigenvalues --    0.17856   0.18070   0.18428   0.18912   0.19270
 Alpha virt. eigenvalues --    0.19571   0.20541   0.21221   0.21638   0.23017
 Alpha virt. eigenvalues --    0.23606   0.24050   0.25315   0.25448   0.26293
 Alpha virt. eigenvalues --    0.27066   0.27978   0.28899   0.29580   0.30320
 Alpha virt. eigenvalues --    0.31586   0.31998   0.35979   0.37242   0.40333
 Alpha virt. eigenvalues --    0.41338   0.43739   0.45349   0.49601   0.54344
 Alpha virt. eigenvalues --    0.57956   0.61454   0.63397   0.63952   0.65278
 Alpha virt. eigenvalues --    0.66392   0.67488   0.68380   0.69250   0.70019
 Alpha virt. eigenvalues --    0.70184   0.70401   0.70912   0.71779   0.72200
 Alpha virt. eigenvalues --    0.73148   0.73394   0.73686   0.73996   0.74362
 Alpha virt. eigenvalues --    0.75275   0.76206   0.77394   0.78127   0.78181
 Alpha virt. eigenvalues --    0.79420   0.79943   0.80455   0.81990   0.83160
 Alpha virt. eigenvalues --    0.84345   0.85888   0.86489   0.87093   0.87330
 Alpha virt. eigenvalues --    0.88410   0.90490   0.92506   0.94956   0.95667
 Alpha virt. eigenvalues --    0.97084   0.97387   0.97406   0.98002   0.98573
 Alpha virt. eigenvalues --    1.00192   1.01879   1.02690   1.03356   1.03615
 Alpha virt. eigenvalues --    1.04312   1.06242   1.06951   1.08001   1.08367
 Alpha virt. eigenvalues --    1.09709   1.10590   1.11875   1.13102   1.13962
 Alpha virt. eigenvalues --    1.15285   1.16060   1.18619   1.21119   1.23469
 Alpha virt. eigenvalues --    1.26904   1.27292   1.30413   1.31648   1.32637
 Alpha virt. eigenvalues --    1.35648   1.37326   1.37852   1.41390   1.42491
 Alpha virt. eigenvalues --    1.43508   1.44563   1.46955   1.49050   1.51603
 Alpha virt. eigenvalues --    1.54284   1.57713   1.59144   1.59602   1.61011
 Alpha virt. eigenvalues --    1.61790   1.62772   1.64729   1.66156   1.66894
 Alpha virt. eigenvalues --    1.68829   1.72130   1.75003   1.79434   1.80533
 Alpha virt. eigenvalues --    1.83149   1.87725   1.89200   1.92044   1.92436
 Alpha virt. eigenvalues --    1.94881   1.95878   2.00873   2.01410   2.03101
 Alpha virt. eigenvalues --    2.07132   2.11436   2.17537   2.23463   2.44212
 Alpha virt. eigenvalues --    2.53600   2.77917   2.91465   3.02028   3.16341
 Alpha virt. eigenvalues --    3.44777   3.58787   4.00621
          Condensed to atoms (all electrons):
               1          2          3          4          5          6
     1  F    9.085071   0.000000   0.000000   0.000000  -0.001611   0.000000
     2  O    0.000000   8.077477  -0.000667  -0.000001   0.000000   0.000000
     3  O    0.000000  -0.000667   8.235651  -0.065817   0.000000   0.000000
     4  O    0.000000  -0.000001  -0.065817   8.150407   0.000000   0.000000
     5  N   -0.001611   0.000000   0.000000   0.000000   7.227512  -0.003049
     6  N    0.000000   0.000000   0.000000   0.000000  -0.003049   7.029846
     7  N    0.000000  -0.000025  -0.000001   0.000097  -0.000004   0.000000
     8  C   -0.006296   0.000000   0.000000   0.000000   0.268512  -0.051722
     9  C   -0.000018   0.000000   0.000000   0.000000   0.274935  -0.051740
    10  C   -0.000091   0.000000   0.000000   0.000000  -0.049339   0.282292
    11  C    0.000000   0.000000   0.000000   0.000000  -0.051624   0.285283
    12  C   -0.062906  -0.000006   0.000000   0.000000   0.290453  -0.000050
    13  C   -0.000209   0.003375  -0.000002   0.000002   0.005067   0.000000
    14  C    0.002428   0.000002   0.000000   0.000000  -0.057263  -0.000002
    15  C    0.000000   0.000000   0.000000   0.000000  -0.000071   0.305425
    16  C    0.309794   0.000652   0.000000   0.000000  -0.073697   0.000000
    17  C    0.002995  -0.126492   0.000099  -0.000016  -0.000351   0.000000
    18  C   -0.060778   0.004127   0.000000   0.000000   0.004077   0.000000
    19  C    0.000000   0.000000   0.000000   0.000004   0.000001   0.000000
    20  C   -0.000004   0.641171   0.001813   0.001973   0.000000   0.000000
    21  C    0.000000   0.003533   0.003176   0.003534   0.000000   0.000000
    22  C    0.000000  -0.115946  -0.092938  -0.114327   0.000000   0.000000
    23  C    0.000000   0.000000   0.000000   0.000000   0.000001   0.000000
    24  C    0.000000  -0.004198   0.219812   0.517991   0.000000   0.000000
    25  H    0.023299   0.000000   0.000000   0.000000  -0.029174   0.001968
    26  H    0.000091   0.000000   0.000000   0.000000  -0.052184   0.001481
    27  H    0.000000   0.000000   0.000000   0.000000  -0.049636   0.001841
    28  H    0.000000   0.000000   0.000000   0.000000  -0.033515   0.002225
    29  H    0.000069   0.000000   0.000000   0.000000   0.000398  -0.052573
    30  H   -0.000002   0.000000   0.000000   0.000000   0.002299  -0.034673
    31  H    0.000000   0.000000   0.000000   0.000000   0.002445  -0.034550
    32  H    0.000000   0.000000   0.000000   0.000000   0.000728  -0.052639
    33  H    0.000000   0.000000   0.000000   0.000000  -0.009299  -0.000001
    34  H    0.000000   0.000000   0.000000   0.000000   0.000004  -0.032952
    35  H    0.000000   0.000000   0.000000   0.000000   0.000004  -0.032789
    36  H    0.000000   0.000000   0.000000   0.000000  -0.000016  -0.049882
    37  H   -0.002037   0.015807   0.000000   0.000000  -0.000010   0.000000
    38  H    0.000000   0.000000   0.000000   0.000000  -0.000004   0.000000
    39  H    0.000000   0.000000   0.000000  -0.000006   0.000000   0.000000
    40  H    0.000000  -0.000003   0.000259   0.021331   0.000000   0.000000
    41  H    0.000000   0.000000   0.000000   0.000000   0.000000   0.000000
    42  H    0.000000   0.000000   0.000000   0.000000  -0.000002   0.000000
    43  H    0.000000   0.000000   0.000000   0.000000   0.000000   0.000000
    44  H    0.000000   0.000172   0.239014   0.005783   0.000000   0.000000
               7          8          9         10         11         12
     1  F    0.000000  -0.006296  -0.000018  -0.000091   0.000000  -0.062906
     2  O   -0.000025   0.000000   0.000000   0.000000   0.000000  -0.000006
     3  O   -0.000001   0.000000   0.000000   0.000000   0.000000   0.000000
     4  O    0.000097   0.000000   0.000000   0.000000   0.000000   0.000000
     5  N   -0.000004   0.268512   0.274935  -0.049339  -0.051624   0.290453
     6  N    0.000000  -0.051722  -0.051740   0.282292   0.285283  -0.000050
     7  N    7.445582   0.000000   0.000001   0.000000   0.000000   0.004445
     8  C    0.000000   5.304678  -0.080213   0.257019  -0.009160  -0.060480
     9  C    0.000001  -0.080213   5.246652  -0.007450   0.262991  -0.067300
    10  C    0.000000   0.257019  -0.007450   5.284717  -0.093878   0.003254
    11  C    0.000000  -0.009160   0.262991  -0.093878   5.275271   0.003723
    12  C    0.004445  -0.060480  -0.067300   0.003254   0.003723   5.343548
    13  C    0.183921  -0.000052   0.000221   0.000001  -0.000003  -0.004983
    14  C   -0.048100   0.000713  -0.006649  -0.000099   0.000242   0.281586
    15  C    0.000000   0.004675   0.004802  -0.081756  -0.082044   0.000003
    16  C   -0.000379  -0.003897   0.002114   0.000064  -0.000073   0.164072
    17  C   -0.030220   0.000005   0.000009   0.000000   0.000000  -0.035367
    18  C    0.005704  -0.000040  -0.000106  -0.000002   0.000000  -0.092461
    19  C    0.249174   0.000000  -0.000010   0.000000   0.000000   0.000155
    20  C   -0.036558   0.000000   0.000000   0.000000   0.000000  -0.000925
    21  C    0.240987   0.000000   0.000000   0.000000   0.000000  -0.000072
    22  C   -0.014245   0.000000   0.000000   0.000000   0.000000  -0.000014
    23  C   -0.056627   0.000000  -0.000029   0.000000   0.000000   0.000012
    24  C    0.004587   0.000000   0.000000   0.000000   0.000000   0.000000
    25  H    0.000000   0.340678   0.003472  -0.028824  -0.000049  -0.011117
    26  H    0.000000   0.339576  -0.004144  -0.056142  -0.000065  -0.001175
    27  H    0.000001  -0.002592   0.334039  -0.000293  -0.053863  -0.001834
    28  H   -0.000001   0.004131   0.360540  -0.000118  -0.031597  -0.002762
    29  H    0.000000  -0.053222   0.000252   0.322560  -0.006965  -0.000222
    30  H    0.000000  -0.032641  -0.000150   0.364666   0.005113  -0.000034
    31  H    0.000000  -0.000087  -0.034180   0.005043   0.364797  -0.000063
    32  H    0.000000   0.000388  -0.054812  -0.006962   0.321404  -0.000181
    33  H   -0.007345  -0.000007   0.005306  -0.000005  -0.000071  -0.047987
    34  H    0.000000  -0.000143   0.000114   0.004621  -0.002920   0.000000
    35  H    0.000000   0.000114  -0.000142  -0.002624   0.004629   0.000000
    36  H    0.000000  -0.000164  -0.000174  -0.005843  -0.005933  -0.000001
    37  H   -0.000011   0.000000   0.000000   0.000000   0.000000   0.004688
    38  H   -0.035867   0.000000  -0.000008   0.000000   0.000000  -0.000056
    39  H   -0.032844   0.000000   0.000000   0.000000   0.000000  -0.000003
    40  H   -0.035362   0.000000   0.000000   0.000000   0.000000   0.000000
    41  H   -0.000517   0.000000   0.000000   0.000000   0.000000   0.000001
    42  H   -0.002196   0.000000  -0.000004   0.000000   0.000000   0.000013
    43  H    0.002662   0.000000   0.000000   0.000000   0.000000   0.000001
    44  H    0.000000   0.000000   0.000000   0.000000   0.000000   0.000000
              13         14         15         16         17         18
     1  F   -0.000209   0.002428   0.000000   0.309794   0.002995  -0.060778
     2  O    0.003375   0.000002   0.000000   0.000652  -0.126492   0.004127
     3  O   -0.000002   0.000000   0.000000   0.000000   0.000099   0.000000
     4  O    0.000002   0.000000   0.000000   0.000000  -0.000016   0.000000
     5  N    0.005067  -0.057263  -0.000071  -0.073697  -0.000351   0.004077
     6  N    0.000000  -0.000002   0.305425   0.000000   0.000000   0.000000
     7  N    0.183921  -0.048100   0.000000  -0.000379  -0.030220   0.005704
     8  C   -0.000052   0.000713   0.004675  -0.003897   0.000005  -0.000040
     9  C    0.000221  -0.006649   0.004802   0.002114   0.000009  -0.000106
    10  C    0.000001  -0.000099  -0.081756   0.000064   0.000000  -0.000002
    11  C   -0.000003   0.000242  -0.082044  -0.000073   0.000000   0.000000
    12  C   -0.004983   0.281586   0.000003   0.164072  -0.035367  -0.092461
    13  C    5.087286   0.343287   0.000000  -0.042300   0.300395  -0.066702
    14  C    0.343287   5.408314   0.000000  -0.023110  -0.043451  -0.041295
    15  C    0.000000   0.000000   5.179086   0.000000   0.000000   0.000000
    16  C   -0.042300  -0.023110   0.000000   5.221625  -0.020519   0.183596
    17  C    0.300395  -0.043451   0.000000  -0.020519   6.063678   0.226348
    18  C   -0.066702  -0.041295   0.000000   0.183596   0.226348   5.728536
    19  C   -0.053397  -0.004283   0.000000   0.000002   0.001165  -0.000082
    20  C    0.003449   0.005764   0.000000   0.009279  -0.035564  -0.075008
    21  C   -0.065791   0.002051   0.000000   0.000011  -0.012274  -0.001332
    22  C   -0.023922  -0.000731   0.000000   0.000017  -0.170344   0.015129
    23  C   -0.000141  -0.002513   0.000000  -0.000002  -0.000038   0.000004
    24  C   -0.000574  -0.000003   0.000000   0.000000   0.005821   0.000007
    25  H    0.000020  -0.000234  -0.000071   0.001043  -0.000029   0.000333
    26  H   -0.000021   0.001320  -0.000108   0.000655  -0.000006   0.000052
    27  H   -0.000114   0.001076  -0.000111  -0.000218  -0.000001   0.000006
    28  H    0.000082   0.001509  -0.000080   0.000355  -0.000011  -0.000010
    29  H    0.000000   0.000001  -0.003575   0.000026   0.000000   0.000001
    30  H    0.000000   0.000001  -0.003661  -0.000004   0.000000   0.000000
    31  H    0.000000   0.000003  -0.003779   0.000000   0.000000   0.000000
    32  H    0.000000  -0.000008  -0.003364  -0.000009   0.000000   0.000000
    33  H   -0.050065   0.393340   0.000000   0.003791   0.004416  -0.000404
    34  H    0.000000   0.000000   0.366323   0.000000   0.000000   0.000000
    35  H    0.000000   0.000000   0.366946   0.000000   0.000000   0.000000
    36  H    0.000000   0.000000   0.326659   0.000000   0.000000   0.000000
    37  H    0.003489  -0.000370   0.000000  -0.033931  -0.056745   0.370615
    38  H   -0.002021   0.001112   0.000000  -0.000005   0.000235  -0.000003
    39  H    0.002924   0.000131   0.000000   0.000000  -0.000067   0.000001
    40  H    0.003091  -0.000060   0.000000   0.000000  -0.000491   0.000000
    41  H    0.000014   0.000019   0.000000   0.000000   0.000001   0.000000
    42  H    0.001708   0.002734   0.000000   0.000003  -0.000033  -0.000003
    43  H   -0.000012   0.000003   0.000000   0.000000   0.000000   0.000000
    44  H    0.000000   0.000000   0.000000   0.000000   0.000005   0.000000
              19         20         21         22         23         24
     1  F    0.000000  -0.000004   0.000000   0.000000   0.000000   0.000000
     2  O    0.000000   0.641171   0.003533  -0.115946   0.000000  -0.004198
     3  O    0.000000   0.001813   0.003176  -0.092938   0.000000   0.219812
     4  O    0.000004   0.001973   0.003534  -0.114327   0.000000   0.517991
     5  N    0.000001   0.000000   0.000000   0.000000   0.000001   0.000000
     6  N    0.000000   0.000000   0.000000   0.000000   0.000000   0.000000
     7  N    0.249174  -0.036558   0.240987  -0.014245  -0.056627   0.004587
     8  C    0.000000   0.000000   0.000000   0.000000   0.000000   0.000000
     9  C   -0.000010   0.000000   0.000000   0.000000  -0.000029   0.000000
    10  C    0.000000   0.000000   0.000000   0.000000   0.000000   0.000000
    11  C    0.000000   0.000000   0.000000   0.000000   0.000000   0.000000
    12  C    0.000155  -0.000925  -0.000072  -0.000014   0.000012   0.000000
    13  C   -0.053397   0.003449  -0.065791  -0.023922  -0.000141  -0.000574
    14  C   -0.004283   0.005764   0.002051  -0.000731  -0.002513  -0.000003
    15  C    0.000000   0.000000   0.000000   0.000000   0.000000   0.000000
    16  C    0.000002   0.009279   0.000011   0.000017  -0.000002   0.000000
    17  C    0.001165  -0.035564  -0.012274  -0.170344  -0.000038   0.005821
    18  C   -0.000082  -0.075008  -0.001332   0.015129   0.000004   0.000007
    19  C    5.196246   0.000043  -0.063578   0.002217   0.262225  -0.000043
    20  C    0.000043   5.200871  -0.024565  -0.059664  -0.000002  -0.037604
    21  C   -0.063578  -0.024565   5.115013   0.309669   0.000168  -0.093893
    22  C    0.002217  -0.059664   0.309669   6.445363  -0.000056   0.066073
    23  C    0.262225  -0.000002   0.000168  -0.000056   5.370965   0.000002
    24  C   -0.000043  -0.037604  -0.093893   0.066073   0.000002   4.690461
    25  H    0.000000   0.000000   0.000000   0.000000   0.000000   0.000000
    26  H    0.000000   0.000000   0.000000   0.000000   0.000000   0.000000
    27  H   -0.000012   0.000000   0.000000   0.000000   0.000006   0.000000
    28  H   -0.000006   0.000000   0.000000   0.000000   0.000026   0.000000
    29  H    0.000000   0.000000   0.000000   0.000000   0.000000   0.000000
    30  H    0.000000   0.000000   0.000000   0.000000   0.000000   0.000000
    31  H    0.000000   0.000000   0.000000   0.000000   0.000000   0.000000
    32  H    0.000000   0.000000   0.000000   0.000000   0.000000   0.000000
    33  H    0.001500  -0.000002  -0.000016   0.000004  -0.000730   0.000000
    34  H    0.000000   0.000000   0.000000   0.000000   0.000000   0.000000
    35  H    0.000000   0.000000   0.000000   0.000000   0.000000   0.000000
    36  H    0.000000   0.000000   0.000000   0.000000   0.000000   0.000000
    37  H    0.000000   0.001195  -0.000061   0.001327   0.000000   0.000004
    38  H    0.367459   0.000004   0.002549  -0.000106  -0.051898   0.000001
    39  H    0.374071  -0.000010  -0.000479   0.000532  -0.045641  -0.000018
    40  H   -0.002196   0.002777   0.363410  -0.055241   0.000050   0.000982
    41  H   -0.039641   0.000000   0.001911  -0.000055   0.367189   0.000000
    42  H   -0.039996  -0.000001  -0.000070   0.000015   0.366453   0.000000
    43  H   -0.035768   0.000000  -0.000025   0.000000   0.350307   0.000000
    44  H    0.000000  -0.000088  -0.000304   0.012723   0.000000  -0.031155
              25         26         27         28         29         30
     1  F    0.023299   0.000091   0.000000   0.000000   0.000069  -0.000002
     2  O    0.000000   0.000000   0.000000   0.000000   0.000000   0.000000
     3  O    0.000000   0.000000   0.000000   0.000000   0.000000   0.000000
     4  O    0.000000   0.000000   0.000000   0.000000   0.000000   0.000000
     5  N   -0.029174  -0.052184  -0.049636  -0.033515   0.000398   0.002299
     6  N    0.001968   0.001481   0.001841   0.002225  -0.052573  -0.034673
     7  N    0.000000   0.000000   0.000001  -0.000001   0.000000   0.000000
     8  C    0.340678   0.339576  -0.002592   0.004131  -0.053222  -0.032641
     9  C    0.003472  -0.004144   0.334039   0.360540   0.000252  -0.000150
    10  C   -0.028824  -0.056142  -0.000293  -0.000118   0.322560   0.364666
    11  C   -0.000049  -0.000065  -0.053863  -0.031597  -0.006965   0.005113
    12  C   -0.011117  -0.001175  -0.001834  -0.002762  -0.000222  -0.000034
    13  C    0.000020  -0.000021  -0.000114   0.000082   0.000000   0.000000
    14  C   -0.000234   0.001320   0.001076   0.001509   0.000001   0.000001
    15  C   -0.000071  -0.000108  -0.000111  -0.000080  -0.003575  -0.003661
    16  C    0.001043   0.000655  -0.000218   0.000355   0.000026  -0.000004
    17  C   -0.000029  -0.000006  -0.000001  -0.000011   0.000000   0.000000
    18  C    0.000333   0.000052   0.000006  -0.000010   0.000001   0.000000
    19  C    0.000000   0.000000  -0.000012  -0.000006   0.000000   0.000000
    20  C    0.000000   0.000000   0.000000   0.000000   0.000000   0.000000
    21  C    0.000000   0.000000   0.000000   0.000000   0.000000   0.000000
    22  C    0.000000   0.000000   0.000000   0.000000   0.000000   0.000000
    23  C    0.000000   0.000000   0.000006   0.000026   0.000000   0.000000
    24  C    0.000000   0.000000   0.000000   0.000000   0.000000   0.000000
    25  H    0.503964  -0.029791  -0.000188  -0.000053  -0.000236  -0.002146
    26  H   -0.029791   0.591231   0.009211  -0.000192   0.005202  -0.001192
    27  H   -0.000188   0.009211   0.602593  -0.036028   0.000232   0.000032
    28  H   -0.000053  -0.000192  -0.036028   0.530826   0.000051   0.000001
    29  H   -0.000236   0.005202   0.000232   0.000051   0.625060  -0.036640
    30  H   -0.002146  -0.001192   0.000032   0.000001  -0.036640   0.534426
    31  H    0.000000   0.000028  -0.000675  -0.002342  -0.000264  -0.000068
    32  H    0.000041   0.000253   0.005278  -0.000201   0.013237  -0.000265
    33  H   -0.000008   0.000063   0.003206  -0.000050   0.000000   0.000000
    34  H    0.000001   0.000000  -0.000010  -0.000007  -0.000278   0.000107
    35  H   -0.000006  -0.000009  -0.000001   0.000001  -0.001252   0.005383
    36  H    0.000010   0.000016   0.000017   0.000012   0.011706  -0.001403
    37  H    0.000009   0.000000   0.000000   0.000000   0.000000   0.000000
    38  H    0.000000   0.000001   0.000061  -0.000039   0.000000   0.000000
    39  H    0.000000   0.000000   0.000000   0.000000   0.000000   0.000000
    40  H    0.000000   0.000000   0.000000   0.000000   0.000000   0.000000
    41  H    0.000000   0.000000   0.000000  -0.000001   0.000000   0.000000
    42  H    0.000000   0.000000  -0.000030   0.000641   0.000000   0.000000
    43  H    0.000000   0.000000   0.000000  -0.000003   0.000000   0.000000
    44  H    0.000000   0.000000   0.000000   0.000000   0.000000   0.000000
              31         32         33         34         35         36
     1  F    0.000000   0.000000   0.000000   0.000000   0.000000   0.000000
     2  O    0.000000   0.000000   0.000000   0.000000   0.000000   0.000000
     3  O    0.000000   0.000000   0.000000   0.000000   0.000000   0.000000
     4  O    0.000000   0.000000   0.000000   0.000000   0.000000   0.000000
     5  N    0.002445   0.000728  -0.009299   0.000004   0.000004  -0.000016
     6  N   -0.034550  -0.052639  -0.000001  -0.032952  -0.032789  -0.049882
     7  N    0.000000   0.000000  -0.007345   0.000000   0.000000   0.000000
     8  C   -0.000087   0.000388  -0.000007  -0.000143   0.000114  -0.000164
     9  C   -0.034180  -0.054812   0.005306   0.000114  -0.000142  -0.000174
    10  C    0.005043  -0.006962  -0.000005   0.004621  -0.002624  -0.005843
    11  C    0.364797   0.321404  -0.000071  -0.002920   0.004629  -0.005933
    12  C   -0.000063  -0.000181  -0.047987   0.000000   0.000000  -0.000001
    13  C    0.000000   0.000000  -0.050065   0.000000   0.000000   0.000000
    14  C    0.000003  -0.000008   0.393340   0.000000   0.000000   0.000000
    15  C   -0.003779  -0.003364   0.000000   0.366323   0.366946   0.326659
    16  C    0.000000  -0.000009   0.003791   0.000000   0.000000   0.000000
    17  C    0.000000   0.000000   0.004416   0.000000   0.000000   0.000000
    18  C    0.000000   0.000000  -0.000404   0.000000   0.000000   0.000000
    19  C    0.000000   0.000000   0.001500   0.000000   0.000000   0.000000
    20  C    0.000000   0.000000  -0.000002   0.000000   0.000000   0.000000
    21  C    0.000000   0.000000  -0.000016   0.000000   0.000000   0.000000
    22  C    0.000000   0.000000   0.000004   0.000000   0.000000   0.000000
    23  C    0.000000   0.000000  -0.000730   0.000000   0.000000   0.000000
    24  C    0.000000   0.000000   0.000000   0.000000   0.000000   0.000000
    25  H    0.000000   0.000041  -0.000008   0.000001  -0.000006   0.000010
    26  H    0.000028   0.000253   0.000063   0.000000  -0.000009   0.000016
    27  H   -0.000675   0.005278   0.003206  -0.000010  -0.000001   0.000017
    28  H   -0.002342  -0.000201  -0.000050  -0.000007   0.000001   0.000012
    29  H   -0.000264   0.013237   0.000000  -0.000278  -0.001252   0.011706
    30  H   -0.000068  -0.000265   0.000000   0.000107   0.005383  -0.001403
    31  H    0.539322  -0.036926   0.000004   0.005591   0.000120  -0.001414
    32  H   -0.036926   0.629339   0.000004  -0.001202  -0.000287   0.011411
    33  H    0.000004   0.000004   0.500123   0.000000   0.000000   0.000000
    34  H    0.005591  -0.001202   0.000000   0.527688  -0.022587  -0.039141
    35  H    0.000120  -0.000287   0.000000  -0.022587   0.524356  -0.039131
    36  H   -0.001414   0.011411   0.000000  -0.039141  -0.039131   0.630347
    37  H    0.000000   0.000000   0.000001   0.000000   0.000000   0.000000
    38  H    0.000000   0.000000   0.004128   0.000000   0.000000   0.000000
    39  H    0.000000   0.000000   0.000105   0.000000   0.000000   0.000000
    40  H    0.000000   0.000000   0.000002   0.000000   0.000000   0.000000
    41  H    0.000000   0.000000  -0.000010   0.000000   0.000000   0.000000
    42  H    0.000000   0.000000   0.001681   0.000000   0.000000   0.000000
    43  H    0.000000   0.000000   0.000102   0.000000   0.000000   0.000000
    44  H    0.000000   0.000000   0.000000   0.000000   0.000000   0.000000
              37         38         39         40         41         42
     1  F   -0.002037   0.000000   0.000000   0.000000   0.000000   0.000000
     2  O    0.015807   0.000000   0.000000  -0.000003   0.000000   0.000000
     3  O    0.000000   0.000000   0.000000   0.000259   0.000000   0.000000
     4  O    0.000000   0.000000  -0.000006   0.021331   0.000000   0.000000
     5  N   -0.000010  -0.000004   0.000000   0.000000   0.000000  -0.000002
     6  N    0.000000   0.000000   0.000000   0.000000   0.000000   0.000000
     7  N   -0.000011  -0.035867  -0.032844  -0.035362  -0.000517  -0.002196
     8  C    0.000000   0.000000   0.000000   0.000000   0.000000   0.000000
     9  C    0.000000  -0.000008   0.000000   0.000000   0.000000  -0.000004
    10  C    0.000000   0.000000   0.000000   0.000000   0.000000   0.000000
    11  C    0.000000   0.000000   0.000000   0.000000   0.000000   0.000000
    12  C    0.004688  -0.000056  -0.000003   0.000000   0.000001   0.000013
    13  C    0.003489  -0.002021   0.002924   0.003091   0.000014   0.001708
    14  C   -0.000370   0.001112   0.000131  -0.000060   0.000019   0.002734
    15  C    0.000000   0.000000   0.000000   0.000000   0.000000   0.000000
    16  C   -0.033931  -0.000005   0.000000   0.000000   0.000000   0.000003
[...]
    16  C    0.000001   0.009367   0.000013   0.000007  -0.000003   0.000000
    17  C    0.001128  -0.025950  -0.014796  -0.169271  -0.000027   0.005951
    18  C   -0.000078  -0.076241  -0.001305   0.015630   0.000004   0.000000
    19  C    5.192409   0.000038  -0.059999   0.002218   0.263635  -0.000043
    20  C    0.000038   5.195595  -0.024148  -0.063090  -0.000003  -0.037518
    21  C   -0.059999  -0.024148   5.114975   0.313754   0.000137  -0.097391
    22  C    0.002218  -0.063090   0.313754   6.450315  -0.000059   0.063808
    23  C    0.263635  -0.000003   0.000137  -0.000059   5.367538   0.000002
    24  C   -0.000043  -0.037518  -0.097391   0.063808   0.000002   4.691140
    25  H    0.000000   0.000000   0.000000   0.000000   0.000000   0.000000
    26  H    0.000000   0.000000   0.000000   0.000000   0.000000   0.000000
    27  H   -0.000005   0.000000   0.000000   0.000000   0.000003   0.000000
    28  H   -0.000011   0.000000   0.000000   0.000000   0.000054   0.000000
    29  H    0.000000   0.000000   0.000000   0.000000   0.000000   0.000000
    30  H    0.000000   0.000000   0.000000   0.000000   0.000000   0.000000
    31  H    0.000000   0.000000   0.000000   0.000000   0.000000   0.000000
    32  H    0.000000   0.000000   0.000000   0.000000   0.000000   0.000000
    33  H    0.001986  -0.000004  -0.000011   0.000003  -0.000871   0.000000
    34  H    0.000000   0.000000   0.000000   0.000000   0.000000   0.000000
    35  H    0.000000   0.000000   0.000000   0.000000   0.000000   0.000000
    36  H    0.000000   0.000000   0.000000   0.000000   0.000000   0.000000
    37  H    0.000000   0.001075  -0.000065   0.001507   0.000000   0.000005
    38  H    0.366850   0.000003   0.002345  -0.000103  -0.049863   0.000001
    39  H    0.372721  -0.000009   0.000033   0.000462  -0.044062  -0.000016
    40  H   -0.001860   0.002944   0.363007  -0.059538   0.000023   0.000669
    41  H   -0.039398   0.000000   0.001965  -0.000061   0.367352   0.000000
    42  H   -0.039822  -0.000002  -0.000069   0.000017   0.365892   0.000000
    43  H   -0.035123   0.000000  -0.000019   0.000000   0.350872   0.000000
    44  H    0.000000  -0.000057  -0.000292   0.011874   0.000000  -0.028759
              25         26         27         28         29         30
     1  F    0.033342   0.000146   0.000000   0.000000   0.000146  -0.000003
     2  O    0.000000   0.000000   0.000000   0.000000   0.000000   0.000000
     3  O    0.000000   0.000000   0.000000   0.000000   0.000000   0.000000
     4  O    0.000000   0.000000   0.000000   0.000000   0.000000   0.000000
     5  N   -0.028635  -0.047960  -0.046452  -0.032500   0.000951   0.002311
     6  N    0.001863   0.002439   0.002426   0.002151  -0.048107  -0.032789
     7  N    0.000000   0.000000   0.000000  -0.000001   0.000000   0.000000
     8  C    0.328198   0.339681  -0.002268   0.003722  -0.053123  -0.032699
     9  C    0.003020  -0.003780   0.339757   0.356720   0.000134  -0.000150
    10  C   -0.028124  -0.057102  -0.000521  -0.000150   0.321214   0.362721
    11  C   -0.000055  -0.000239  -0.054059  -0.032143  -0.007629   0.004778
    12  C   -0.010004  -0.000454  -0.000758  -0.002674  -0.000193  -0.000033
    13  C    0.000017  -0.000008  -0.000073   0.000094   0.000000   0.000000
    14  C   -0.000130   0.000657   0.000826   0.001599   0.000001   0.000001
    15  C   -0.000065  -0.000106  -0.000110  -0.000078  -0.002928  -0.003552
    16  C   -0.001348   0.000725  -0.000149   0.000309   0.000032  -0.000002
    17  C   -0.000035  -0.000003   0.000000  -0.000012   0.000000   0.000000
    18  C    0.000464   0.000039   0.000004  -0.000009   0.000001   0.000000
    19  C    0.000000   0.000000  -0.000005  -0.000011   0.000000   0.000000
    20  C    0.000000   0.000000   0.000000   0.000000   0.000000   0.000000
    21  C    0.000000   0.000000   0.000000   0.000000   0.000000   0.000000
    22  C    0.000000   0.000000   0.000000   0.000000   0.000000   0.000000
    23  C    0.000000   0.000000   0.000003   0.000054   0.000000   0.000000
    24  C    0.000000   0.000000   0.000000   0.000000   0.000000   0.000000
    25  H    0.495307  -0.025265  -0.000135  -0.000050   0.000513  -0.002031
    26  H   -0.025265   0.576322   0.008084  -0.000136   0.005250  -0.000508
    27  H   -0.000135   0.008084   0.582893  -0.033278   0.000237   0.000037
    28  H   -0.000050  -0.000136  -0.033278   0.531184   0.000058   0.000001
    29  H    0.000513   0.005250   0.000237   0.000058   0.615134  -0.033814
    30  H   -0.002031  -0.000508   0.000037   0.000001  -0.033814   0.531699
    31  H    0.000000   0.000031  -0.000334  -0.002056  -0.000207  -0.000064
    32  H    0.000049   0.000260   0.005160   0.000256   0.013393  -0.000203
    33  H   -0.000005   0.000031   0.001785   0.001084   0.000000   0.000000
    34  H    0.000000  -0.000001  -0.000009  -0.000006  -0.000244   0.000103
    35  H   -0.000006  -0.000010  -0.000001   0.000001  -0.000950   0.005129
    36  H    0.000008   0.000018   0.000016   0.000010   0.009192  -0.001153
    37  H    0.000010   0.000000   0.000000   0.000000   0.000000   0.000000
    38  H    0.000000   0.000000   0.000024  -0.000056   0.000000   0.000000
    39  H    0.000000   0.000000   0.000000   0.000000   0.000000   0.000000
    40  H    0.000000   0.000000   0.000000   0.000000   0.000000   0.000000
    41  H    0.000000   0.000000   0.000000  -0.000001   0.000000   0.000000
    42  H    0.000000   0.000000  -0.000015   0.000792   0.000000   0.000000
    43  H    0.000000   0.000000   0.000000  -0.000004   0.000000   0.000000
    44  H    0.000000   0.000000   0.000000   0.000000   0.000000   0.000000
              31         32         33         34         35         36
     1  F    0.000000   0.000000   0.000000   0.000000   0.000000   0.000000
     2  O    0.000000   0.000000   0.000000   0.000000   0.000000   0.000000
     3  O    0.000000   0.000000   0.000000   0.000000   0.000000   0.000000
     4  O    0.000000   0.000000   0.000000   0.000000   0.000000   0.000000
     5  N    0.002388   0.001189  -0.009369   0.000004   0.000004  -0.000011
     6  N   -0.033227  -0.048337   0.000000  -0.032577  -0.032276  -0.045693
     7  N    0.000000   0.000000  -0.007325   0.000000   0.000000   0.000000
     8  C   -0.000114   0.000222   0.000006  -0.000133   0.000105  -0.000158
     9  C   -0.034042  -0.055353   0.004594   0.000096  -0.000130  -0.000163
    10  C    0.004771  -0.007637  -0.000005   0.004348  -0.002509  -0.005110
    11  C    0.362500   0.320985  -0.000082  -0.002570   0.004419  -0.005589
    12  C   -0.000058  -0.000115  -0.048438   0.000000   0.000000   0.000000
    13  C    0.000000   0.000000  -0.051594   0.000000   0.000000   0.000000
    14  C    0.000001  -0.000014   0.394091   0.000000   0.000000   0.000000
    15  C   -0.003513  -0.003070   0.000000   0.365773   0.366454   0.326194
    16  C    0.000000  -0.000014   0.003982   0.000000   0.000000   0.000000
    17  C    0.000000   0.000000   0.004766   0.000000   0.000000   0.000000
    18  C    0.000000   0.000000  -0.000430   0.000000   0.000000   0.000000
    19  C    0.000000   0.000000   0.001986   0.000000   0.000000   0.000000
    20  C    0.000000   0.000000  -0.000004   0.000000   0.000000   0.000000
    21  C    0.000000   0.000000  -0.000011   0.000000   0.000000   0.000000
    22  C    0.000000   0.000000   0.000003   0.000000   0.000000   0.000000
    23  C    0.000000   0.000000  -0.000871   0.000000   0.000000   0.000000
    24  C    0.000000   0.000000   0.000000   0.000000   0.000000   0.000000
    25  H    0.000000   0.000049  -0.000005   0.000000  -0.000006   0.000008
    26  H    0.000031   0.000260   0.000031  -0.000001  -0.000010   0.000018
    27  H   -0.000334   0.005160   0.001785  -0.000009  -0.000001   0.000016
    28  H   -0.002056   0.000256   0.001084  -0.000006   0.000001   0.000010
    29  H   -0.000207   0.013393   0.000000  -0.000244  -0.000950   0.009192
    30  H   -0.000064  -0.000203   0.000000   0.000103   0.005129  -0.001153
    31  H    0.537629  -0.034958   0.000004   0.005219   0.000105  -0.001210
    32  H   -0.034958   0.620857   0.000006  -0.000982  -0.000249   0.009583
    33  H    0.000004   0.000006   0.504332   0.000000   0.000000   0.000000
    34  H    0.005219  -0.000982   0.000000   0.526552  -0.022764  -0.038946
    35  H    0.000105  -0.000249   0.000000  -0.022764   0.522512  -0.038602
    36  H   -0.001210   0.009583   0.000000  -0.038946  -0.038602   0.625352
    37  H    0.000000   0.000000   0.000001   0.000000   0.000000   0.000000
    38  H    0.000000   0.000000   0.004505   0.000000   0.000000   0.000000
    39  H    0.000000   0.000000   0.000072   0.000000   0.000000   0.000000
    40  H    0.000000   0.000000   0.000002   0.000000   0.000000   0.000000
    41  H    0.000000   0.000000   0.000000   0.000000   0.000000   0.000000
    42  H    0.000000   0.000000   0.001092   0.000000   0.000000   0.000000
    43  H    0.000000   0.000000   0.000086   0.000000   0.000000   0.000000
    44  H    0.000000   0.000000   0.000000   0.000000   0.000000   0.000000
              37         38         39         40         41         42
     1  F   -0.001841   0.000000   0.000000   0.000000   0.000000   0.000000
     2  O    0.017789   0.000000   0.000000  -0.000002   0.000000   0.000000
     3  O    0.000000   0.000000   0.000000   0.000290   0.000000   0.000000
     4  O    0.000000   0.000000  -0.000006   0.023199   0.000000   0.000000
     5  N   -0.000011  -0.000002   0.000000   0.000000   0.000000  -0.000004
     6  N    0.000000   0.000000   0.000000   0.000000   0.000000   0.000000
     7  N   -0.000010  -0.033856  -0.031374  -0.034077  -0.000386  -0.002368
     8  C   -0.000001   0.000000   0.000000   0.000000   0.000000   0.000000
     9  C    0.000000   0.000002   0.000000   0.000000   0.000000  -0.000024
    10  C    0.000000   0.000000   0.000000   0.000000   0.000000   0.000000
    11  C    0.000000   0.000000   0.000000   0.000000   0.000000   0.000001
    12  C    0.004901  -0.000049  -0.000003   0.000000   0.000001   0.000023
    13  C    0.003538  -0.001734   0.002748   0.003072   0.000030   0.001922
    14  C   -0.000380   0.000666   0.000109  -0.000054   0.000014   0.003419
    15  C    0.000000   0.000000   0.000000   0.000000   0.000000   0.000000
    16  C   -0.033779  -0.000003   0.000000   0.000000   0.000000   0.000004
    17  C   -0.058321   0.000184  -0.000064  -0.000539  -0.000001  -0.000044
    18  C    0.368519  -0.000002   0.000001   0.000000   0.000000  -0.000005
    19  C    0.000000   0.366850   0.372721  -0.001860  -0.039398  -0.039822
    20  C    0.001075   0.000003  -0.000009   0.002944   0.000000  -0.000002
    21  C   -0.000065   0.002345   0.000033   0.363007   0.001965  -0.000069
    22  C    0.001507  -0.000103   0.000462  -0.059538  -0.000061   0.000017
    23  C    0.000000  -0.049863  -0.044062   0.000023   0.367352   0.365892
    24  C    0.000005   0.000001  -0.000016   0.000669   0.000000   0.000000
    25  H    0.000010   0.000000   0.000000   0.000000   0.000000   0.000000
    26  H    0.000000   0.000000   0.000000   0.000000   0.000000   0.000000
    27  H    0.000000   0.000024   0.000000   0.000000   0.000000  -0.000015
    28  H    0.000000  -0.000056   0.000000   0.000000  -0.000001   0.000792
    29  H    0.000000   0.000000   0.000000   0.000000   0.000000   0.000000
    30  H    0.000000   0.000000   0.000000   0.000000   0.000000   0.000000
    31  H    0.000000   0.000000   0.000000   0.000000   0.000000   0.000000
    32  H    0.000000   0.000000   0.000000   0.000000   0.000000   0.000000
    33  H    0.000001   0.004505   0.000072   0.000002   0.000000   0.001092
    34  H    0.000000   0.000000   0.000000   0.000000   0.000000   0.000000
    35  H    0.000000   0.000000   0.000000   0.000000   0.000000   0.000000
    36  H    0.000000   0.000000   0.000000   0.000000   0.000000   0.000000
    37  H    0.456071   0.000000   0.000000   0.000000   0.000000   0.000000
    38  H    0.000000   0.512229  -0.025348   0.000098   0.003193  -0.003100
    39  H    0.000000  -0.025348   0.493650   0.003192  -0.002726   0.003003
    40  H    0.000000   0.000098   0.003192   0.444470   0.000236   0.000000
    41  H    0.000000   0.003193  -0.002726   0.000236   0.502763  -0.024957
    42  H    0.000000  -0.003100   0.003003   0.000000  -0.024957   0.504908
    43  H    0.000000   0.000256  -0.000482  -0.000010  -0.023549  -0.024673
    44  H    0.000000   0.000000   0.000000  -0.000016   0.000000   0.000000
              43         44
     1  F    0.000000   0.000000
     2  O    0.000000   0.000206
     3  O    0.000000   0.236901
     4  O    0.000000   0.004476
     5  N    0.000000   0.000000
     6  N    0.000000   0.000000
     7  N    0.002564   0.000000
     8  C    0.000000   0.000000
     9  C    0.000001   0.000000
    10  C    0.000000   0.000000
    11  C    0.000000   0.000000
    12  C    0.000000   0.000000
    13  C   -0.000002   0.000000
    14  C   -0.000010   0.000000
    15  C    0.000000   0.000000
    16  C    0.000000   0.000000
    17  C    0.000000   0.000005
    18  C    0.000000   0.000000
    19  C   -0.035123   0.000000
    20  C    0.000000  -0.000057
    21  C   -0.000019  -0.000292
    22  C    0.000000   0.011874
    23  C    0.350872   0.000000
    24  C    0.000000  -0.028759
    25  H    0.000000   0.000000
    26  H    0.000000   0.000000
    27  H    0.000000   0.000000
    28  H   -0.000004   0.000000
    29  H    0.000000   0.000000
    30  H    0.000000   0.000000
    31  H    0.000000   0.000000
    32  H    0.000000   0.000000
    33  H    0.000086   0.000000
    34  H    0.000000   0.000000
    35  H    0.000000   0.000000
    36  H    0.000000   0.000000
    37  H    0.000000   0.000000
    38  H    0.000256   0.000000
    39  H   -0.000482   0.000000
    40  H   -0.000010  -0.000016
    41  H   -0.023549   0.000000
    42  H   -0.024673   0.000000
    43  H    0.530434   0.000000
    44  H    0.000000   0.416856
 Mulliken charges:
               1
     1  F   -0.285699
     2  O   -0.499567
     3  O   -0.540011
     4  O   -0.520446
     5  N   -0.670348
     6  N   -0.496358
     7  N   -0.827585
     8  C   -0.230333
     9  C   -0.193460
    10  C   -0.202228
    11  C   -0.195545
    12  C    0.312820
    13  C    0.365322
    14  C   -0.219128
    15  C   -0.386853
    16  C    0.284501
    17  C   -0.073793
    18  C   -0.196545
    19  C   -0.221527
    20  C    0.404460
    21  C    0.211999
    22  C   -0.206241
    23  C   -0.562261
    24  C    0.661915
    25  H    0.233096
    26  H    0.201891
    27  H    0.196913
    28  H    0.205127
    29  H    0.180938
    30  H    0.200221
    31  H    0.197135
    32  H    0.178973
    33  H    0.195706
    34  H    0.196137
    35  H    0.198768
    36  H    0.166261
    37  H    0.240991
    38  H    0.223760
    39  H    0.228097
    40  H    0.254892
    41  H    0.215526
    42  H    0.214009
    43  H    0.199658
    44  H    0.358808
 Sum of Mulliken charges =   0.00000
 Mulliken charges with hydrogens summed into heavy atoms:
               1
     1  F   -0.285699
     2  O   -0.499567
     3  O   -0.181203
     4  O   -0.520446
     5  N   -0.670348
     6  N   -0.496358
     7  N   -0.827585
     8  C    0.204655
     9  C    0.208581
    10  C    0.178932
    11  C    0.180564
    12  C    0.312820
    13  C    0.365322
    14  C   -0.023422
    15  C    0.174313
    16  C    0.284501
    17  C   -0.073793
    18  C    0.044446
    19  C    0.230331
    20  C    0.404460
    21  C    0.466891
    22  C   -0.206241
    23  C    0.066932
    24  C    0.661915
 Electronic spatial extent (au):  <R**2>=          10936.2980
 Charge=              0.0000 electrons
 Dipole moment (field-independent basis, Debye):
    X=             -5.3556    Y=              5.6509    Z=              0.4921  Tot=              7.8011
 Quadrupole moment (field-independent basis, Debye-Ang):
   XX=           -139.1287   YY=           -136.3185   ZZ=           -142.1009
   XY=              5.5313   XZ=              1.9315   YZ=             -2.4066
 Traceless Quadrupole moment (field-independent basis, Debye-Ang):
   XX=              0.0540   YY=              2.8642   ZZ=             -2.9182
   XY=              5.5313   XZ=              1.9315   YZ=             -2.4066
 Octapole moment (field-independent basis, Debye-Ang**2):
  XXX=            -83.9702  YYY=             39.1345  ZZZ=             -3.5445  XYY=            -21.7767
  XXY=            -35.4724  XXZ=            -19.3892  XZZ=             13.2847  YZZ=             -7.2206
  YYZ=              7.4878  XYZ=              7.3478
 Hexadecapole moment (field-independent basis, Debye-Ang**3):
 XXXX=         -10509.9562 YYYY=          -2183.6634 ZZZZ=           -302.7511 XXXY=           -384.0238
 XXXZ=             -1.5921 YYYX=            103.2090 YYYZ=             12.1885 ZZZX=             -4.6746
 ZZZY=             13.1634 XXYY=          -2348.0128 XXZZ=          -1989.3016 YYZZ=           -420.5401
 XXYZ=            -73.1150 YYXZ=             10.2709 ZZXY=             11.8368
 N-N= 2.066125046192D+03 E-N=-6.798012580048D+03  KE= 1.133828108200D+03
 1\1\GINC-NODE046\FOpt\RB3LYP\3-21G\C17H20F1N3O3\SUPERCOMPUTO1\06-Jul-2
 020\0\\# opt b3lyp/3-21g geom=connectivity\\Title Card Required\\0,1\F
 ,-12.5148581382,8.1242780761,7.4314772336\O,-7.5642539325,8.4138093419
 ,7.4524111085\O,-5.0497494459,9.4613315496,7.5784541187\O,-4.838640255
 1,11.7146918312,7.8690548508\N,-13.5233473461,10.733205145,7.767890414
 2\N,-16.3380560111,11.2631493717,7.8801917731\N,-8.8788047765,12.31461
 95681,7.9564304761\C,-14.4353495661,9.8586498746,8.5582120745\C,-14.02
 9994664,12.1124540486,7.6379739101\C,-15.8349475536,9.8708656743,7.934
 5926251\C,-15.445175254,12.084784982,7.0352861907\C,-12.1509742967,10.
 4902097386,7.7609348903\C,-9.8250910859,11.2790135914,7.8287974444\C,-
 11.2070548207,11.5207977146,7.8878462799\C,-17.7445070888,11.332792253
 7,7.4334888931\C,-11.6345158028,9.1788579044,7.5811605959\C,-9.3548047
 652,9.9638819048,7.6635923869\C,-10.2905842832,8.9294341707,7.54821244
 26\C,-9.2901309698,13.7398478617,8.0778511376\C,-7.9150206957,9.600652
 6147,7.6046912832\C,-7.5538702744,12.0134144434,7.9111735039\C,-7.0349
 510187,10.7591651286,7.7477018402\C,-9.671992816,14.3490759954,6.71569
 01453\C,-5.5662334772,10.7210433379,7.7417818839\H,-14.0340542521,8.85
 03293106,8.556301335\H,-14.5072682136,10.2373342869,9.5880711322\H,-14
 .0696166503,12.6197994062,8.6146477651\H,-13.3733380293,12.6691455251,
 6.9639762875\H,-15.7850520005,9.4114937077,6.9303875611\H,-16.51263243
 29,9.2809870654,8.5608969027\H,-15.838649352,13.1067017658,7.002355211
 7\H,-15.3803389284,11.6949764492,6.0022572542\H,-11.5642136717,12.5228
 210519,8.0615304112\H,-18.0787442614,12.3749806795,7.4660554931\H,-18.
 3648405273,10.7471027926,8.1194753885\H,-17.8973102894,10.9473898621,6
 .4076854019\H,-9.9129117754,7.9250855545,7.4080729397\H,-10.1155457461
 ,13.8054208512,8.7913524229\H,-8.4398175342,14.2760622839,8.5067354969
 \H,-6.8580063864,12.8377413175,8.0177708443\H,-8.8149224377,14.3150548
 35,6.0366530944\H,-10.4970990457,13.7955613362,6.2592348014\H,-9.97562
 77205,15.3930511355,6.8473265849\H,-4.0561024068,9.5469346605,7.589316
 1686\\Version=ES64L-G09RevD.01\State=1-A\HF=-1143.3322423\RMSD=4.557e-
 09\RMSF=8.768e-06\Dipole=-2.0882003,2.2466316,0.1095645\Quadrupole=0.1
 0439,1.9271437,-2.0315337,4.1818161,1.2799792,-1.935121\PG=C01 [X(C17H
 20F1N3O3)]\\@


 MICHAEL FARADAY, ASKED BY A POLITICIAN WHAT GOOD
 HIS ELECTRICAL DISCOVERIES WERE, REPLIED 
 "AT PRESENT I DO NOT KNOW, BUT ONE DAY YOU WILL BE
 ABLE TO TAX THEM."
 Job cpu time:       0 days  0 hours 57 minutes 50.8 seconds.
 File lengths (MBytes):  RWF=     44 Int=      0 D2E=      0 Chk=      7 Scr=      1
 Normal termination of Gaussian 09 at Mon Jul  6 11:36:58 2020.
