 Entering Gaussian System, Link 0=g09
 Input=ciprofloxacina.gjf
 Output=ciprofloxacina.log
 Initial command:
 /usr/local/cluster_programs/g09/l1.exe "/tmp/scratch/63921.prometeo/Gau-13811.inp" -scrdir="/tmp/scratch/63921.prometeo/"
 Entering Link 1 = /usr/local/cluster_programs/g09/l1.exe PID=     13812.
  
 Copyright (c) 1988,1990,1992,1993,1995,1998,2003,2009,2013,
            Gaussian, Inc.  All Rights Reserved.
  
 This is part of the Gaussian(R) 09 program.  It is based on
 the Gaussian(R) 03 system (copyright 2003, Gaussian, Inc.),
 the Gaussian(R) 98 system (copyright 1998, Gaussian, Inc.),
 the Gaussian(R) 94 system (copyright 1995, Gaussian, Inc.),
 the Gaussian 92(TM) system (copyright 1992, Gaussian, Inc.),
 the Gaussian 90(TM) system (copyright 1990, Gaussian, Inc.),
 the Gaussian 88(TM) system (copyright 1988, Gaussian, Inc.),
 the Gaussian 86(TM) system (copyright 1986, Carnegie Mellon
 University), and the Gaussian 82(TM) system (copyright 1983,
 Carnegie Mellon University). Gaussian is a federally registered
 trademark of Gaussian, Inc.
  
 This software contains proprietary and confidential information,
 including trade secrets, belonging to Gaussian, Inc.
  
 This software is provided under written license and may be
 used, copied, transmitted, or stored only in accord with that
 written license.
  
 The following legend is applicable only to US Government
 contracts under FAR:
  
                    RESTRICTED RIGHTS LEGEND
  
 Use, reproduction and disclosure by the US Government is
 subject to restrictions as set forth in subparagraphs (a)
 and (c) of the Commercial Computer Software - Restricted
 Rights clause in FAR 52.227-19.
  
 Gaussian, Inc.
 340 Quinnipiac St., Bldg. 40, Wallingford CT 06492
  
  
 ---------------------------------------------------------------
 Warning -- This program may not be used in any manner that
 competes with the business of Gaussian, Inc. or will provide
 assistance to any competitor of Gaussian, Inc.  The licensee
 of this program is prohibited from giving any competitor of
 Gaussian, Inc. access to this program.  By using this program,
 the user acknowledges that Gaussian, Inc. is engaged in the
 business of creating and licensing software in the field of
 computational chemistry and represents and warrants to the
 licensee that it is not a competitor of Gaussian, Inc. and that
 it will not use this program in any manner prohibited above.
 ---------------------------------------------------------------
  

 Cite this work as:
 Gaussian 09, Revision D.01,
 M. J. Frisch, G. W. Trucks, H. B. Schlegel, G. E. Scuseria, 
 M. A. Robb, J. R. Cheeseman, G. Scalmani, V. Barone, B. Mennucci, 
 G. A. Petersson, H. Nakatsuji, M. Caricato, X. Li, H. P. Hratchian, 
 A. F. Izmaylov, J. Bloino, G. Zheng, J. L. Sonnenberg, M. Hada, 
 M. Ehara, K. Toyota, R. Fukuda, J. Hasegawa, M. Ishida, T. Nakajima, 
 Y. Honda, O. Kitao, H. Nakai, T. Vreven, J. A. Montgomery, Jr., 
 J. E. Peralta, F. Ogliaro, M. Bearpark, J. J. Heyd, E. Brothers, 
 K. N. Kudin, V. N. Staroverov, T. Keith, R. Kobayashi, J. Normand, 
 K. Raghavachari, A. Rendell, J. C. Burant, S. S. Iyengar, J. Tomasi, 
 M. Cossi, N. Rega, J. M. Millam, M. Klene, J. E. Knox, J. B. Cross, 
 V. Bakken, C. Adamo, J. Jaramillo, R. Gomperts, R. E. Stratmann, 
 O. Yazyev, A. J. Austin, R. Cammi, C. Pomelli, J. W. Ochterski, 
 R. L. Martin, K. Morokuma, V. G. Zakrzewski, G. A. Voth, 
 P. Salvador, J. J. Dannenberg, S. Dapprich, A. D. Daniels, 
 O. Farkas, J. B. Foresman, J. V. Ortiz, J. Cioslowski, 
 and D. J. Fox, Gaussian, Inc., Wallingford CT, 2013.
 
 ******************************************
 Gaussian 09:  ES64L-G09RevD.01 24-Apr-2013
                 6-Jul-2020 
 ******************************************
 %nprocshared=20
 Will use up to   20 processors via shared memory.
 -----------------------------------
 # opt b3lyp/3-21g geom=connectivity
 -----------------------------------
 1/14=-1,18=20,19=15,26=3,38=1,57=2/1,3;
 2/9=110,12=2,17=6,18=5,40=1/2;
 3/5=5,11=2,16=1,25=1,30=1,71=1,74=-5/1,2,3;
 4//1;
 5/5=2,38=5/2;
 6/7=2,8=2,9=2,10=2,28=1/1;
 7//1,2,3,16;
 1/14=-1,18=20,19=15,26=3/3(2);
 2/9=110/2;
 99//99;
 2/9=110/2;
 3/5=5,11=2,16=1,25=1,30=1,71=1,74=-5/1,2,3;
 4/5=5,16=3,69=1/1;
 5/5=2,38=5/2;
 7//1,2,3,16;
 1/14=-1,18=20,19=15,26=3/3(-5);
 2/9=110/2;
 6/7=2,8=2,9=2,10=2,19=2,28=1/1;
 99/9=1/99;
 -------------------
 Title Card Required
 -------------------
 Symbolic Z-matrix:
 Charge =  0 Multiplicity = 1
 C                     9.36575   9.96972   6.16516 
 C                     10.3055   9.43488   7.21234 
 C                     10.2832   10.9093   6.90899 
 H                     11.1185   11.3459   6.36231 
 H                     9.83432   11.577    7.6438 
 H                     9.842     9.10889   8.14261 
 H                     11.1607   8.84379   6.88777 
 H                     9.58749   9.77578   5.11195 
 N                     7.60894   5.08092   6.44194 
 C                     9.03378   4.86788   6.20305 
 C                     9.64005   3.98454   7.29948 
 N                     8.92548   2.71704   7.36256 
 C                     6.91586   3.78496   6.52073 
 C                     7.50908   2.93593   7.64157 
 H                     9.35412   2.08677   8.04978 
 H                     9.58748   5.80823   6.17919 
 H                     9.15678   4.38123   5.22025 
 H                     7.08257   3.26616   5.55894 
 H                     5.84652   3.92356   6.66121 
 H                     7.00265   1.96085   7.68347 
 H                     7.32941   3.4604    8.60767 
 H                     10.7008   3.79163   7.08054 
 H                     9.59088   4.55923   8.25306 
 O                     3.97604   10.2371   7.57988 
 O                     4.20425   12.9501   7.21275 
 O                     6.24315   13.7757   6.66693 
 N                     7.94598   9.99481   6.46912 
 C                     7.78108   7.52556   6.47623 
 C                     7.20744   8.79719   6.64203 
 C                     5.84626   8.92706   6.98133 
 C                     7.31623   11.2026   6.56253 
 C                     5.99136   11.3906   6.88748 
 C                     5.16188   10.2151   7.19256 
 C                     5.08474   7.7539    7.09506 
 C                     7.03182   6.3274    6.60354 
 C                     5.64985   6.52484   6.90661 
 C                     5.52657   12.7932   6.91027 
 H                     7.9525    12.0674   6.37446 
 H                     4.02266   7.82867   7.33852 
 H                     4.06809   13.9272   7.17081 
 F                     4.7716    5.45734   7.02153 
 H                     8.83765   7.46522   6.22746 
 

 GradGradGradGradGradGradGradGradGradGradGradGradGradGradGradGradGradGrad
 Berny optimization.
 Initialization pass.
                           ----------------------------
                           !    Initial Parameters    !
                           ! (Angstroms and Degrees)  !
 --------------------------                            --------------------------
 ! Name  Definition              Value          Derivative Info.                !
 --------------------------------------------------------------------------------
 ! R1    R(1,2)                  1.5052         estimate D2E/DX2                !
 ! R2    R(1,3)                  1.5092         estimate D2E/DX2                !
 ! R3    R(1,8)                  1.0936         estimate D2E/DX2                !
 ! R4    R(1,27)                 1.4522         estimate D2E/DX2                !
 ! R5    R(2,3)                  1.5055         estimate D2E/DX2                !
 ! R6    R(2,6)                  1.0893         estimate D2E/DX2                !
 ! R7    R(2,7)                  1.0891         estimate D2E/DX2                !
 ! R8    R(3,4)                  1.0896         estimate D2E/DX2                !
 ! R9    R(3,5)                  1.0896         estimate D2E/DX2                !
 ! R10   R(9,10)                 1.4604         estimate D2E/DX2                !
 ! R11   R(9,13)                 1.4718         estimate D2E/DX2                !
 ! R12   R(9,35)                 1.3831         estimate D2E/DX2                !
 ! R13   R(10,11)                1.533          estimate D2E/DX2                !
 ! R14   R(10,16)                1.0915         estimate D2E/DX2                !
 ! R15   R(10,17)                1.1036         estimate D2E/DX2                !
 ! R16   R(11,12)                1.4564         estimate D2E/DX2                !
 ! R17   R(11,22)                1.1002         estimate D2E/DX2                !
 ! R18   R(11,23)                1.1145         estimate D2E/DX2                !
 ! R19   R(12,14)                1.4601         estimate D2E/DX2                !
 ! R20   R(12,15)                1.0263         estimate D2E/DX2                !
 ! R21   R(13,14)                1.5261         estimate D2E/DX2                !
 ! R22   R(13,18)                1.1054         estimate D2E/DX2                !
 ! R23   R(13,19)                1.0874         estimate D2E/DX2                !
 ! R24   R(14,20)                1.0995         estimate D2E/DX2                !
 ! R25   R(14,21)                1.1139         estimate D2E/DX2                !
 ! R26   R(24,33)                1.2477         estimate D2E/DX2                !
 ! R27   R(25,37)                1.3655         estimate D2E/DX2                !
 ! R28   R(25,40)                0.9874         estimate D2E/DX2                !
 ! R29   R(26,37)                1.2402         estimate D2E/DX2                !
 ! R30   R(27,29)                1.4176         estimate D2E/DX2                !
 ! R31   R(27,31)                1.3653         estimate D2E/DX2                !
 ! R32   R(28,29)                1.4048         estimate D2E/DX2                !
 ! R33   R(28,35)                1.4189         estimate D2E/DX2                !
 ! R34   R(28,42)                1.0871         estimate D2E/DX2                !
 ! R35   R(29,30)                1.4088         estimate D2E/DX2                !
 ! R36   R(30,33)                1.4738         estimate D2E/DX2                !
 ! R37   R(30,34)                1.4033         estimate D2E/DX2                !
 ! R38   R(31,32)                1.377          estimate D2E/DX2                !
 ! R39   R(31,38)                1.09           estimate D2E/DX2                !
 ! R40   R(32,33)                1.4707         estimate D2E/DX2                !
 ! R41   R(32,37)                1.4778         estimate D2E/DX2                !
 ! R42   R(34,36)                1.3658         estimate D2E/DX2                !
 ! R43   R(34,39)                1.0922         estimate D2E/DX2                !
 ! R44   R(35,36)                1.4285         estimate D2E/DX2                !
 ! R45   R(36,41)                1.3871         estimate D2E/DX2                !
 ! A1    A(2,1,8)              118.7101         estimate D2E/DX2                !
 ! A2    A(2,1,27)             118.0935         estimate D2E/DX2                !
 ! A3    A(3,1,8)              117.5021         estimate D2E/DX2                !
 ! A4    A(3,1,27)             118.7123         estimate D2E/DX2                !
 ! A5    A(8,1,27)             113.7581         estimate D2E/DX2                !
 ! A6    A(1,2,6)              115.7738         estimate D2E/DX2                !
 ! A7    A(1,2,7)              118.4088         estimate D2E/DX2                !
 ! A8    A(3,2,6)              117.3152         estimate D2E/DX2                !
 ! A9    A(3,2,7)              118.89           estimate D2E/DX2                !
 ! A10   A(6,2,7)              115.2283         estimate D2E/DX2                !
 ! A11   A(1,3,4)              117.9174         estimate D2E/DX2                !
 ! A12   A(1,3,5)              117.6086         estimate D2E/DX2                !
 ! A13   A(2,3,4)              118.8279         estimate D2E/DX2                !
 ! A14   A(2,3,5)              118.0579         estimate D2E/DX2                !
 ! A15   A(4,3,5)              114.1187         estimate D2E/DX2                !
 ! A16   A(10,9,13)            109.8627         estimate D2E/DX2                !
 ! A17   A(10,9,35)            123.8979         estimate D2E/DX2                !
 ! A18   A(13,9,35)            126.2159         estimate D2E/DX2                !
 ! A19   A(9,10,11)            110.6667         estimate D2E/DX2                !
 ! A20   A(9,10,16)            111.8907         estimate D2E/DX2                !
 ! A21   A(9,10,17)            108.588          estimate D2E/DX2                !
 ! A22   A(11,10,16)           108.1458         estimate D2E/DX2                !
 ! A23   A(11,10,17)           109.8024         estimate D2E/DX2                !
 ! A24   A(16,10,17)           107.692          estimate D2E/DX2                !
 ! A25   A(10,11,12)           109.7807         estimate D2E/DX2                !
 ! A26   A(10,11,22)           109.8783         estimate D2E/DX2                !
 ! A27   A(10,11,23)           107.3012         estimate D2E/DX2                !
 ! A28   A(12,11,22)           109.2129         estimate D2E/DX2                !
 ! A29   A(12,11,23)           112.9592         estimate D2E/DX2                !
 ! A30   A(22,11,23)           107.6525         estimate D2E/DX2                !
 ! A31   A(11,12,14)           110.7171         estimate D2E/DX2                !
 ! A32   A(11,12,15)           111.0114         estimate D2E/DX2                !
 ! A33   A(14,12,15)           111.6705         estimate D2E/DX2                !
 ! A34   A(9,13,14)            110.2517         estimate D2E/DX2                !
 ! A35   A(9,13,18)            107.1972         estimate D2E/DX2                !
 ! A36   A(9,13,19)            110.9639         estimate D2E/DX2                !
 ! A37   A(14,13,18)           108.6196         estimate D2E/DX2                !
 ! A38   A(14,13,19)           110.9949         estimate D2E/DX2                !
 ! A39   A(18,13,19)           108.6948         estimate D2E/DX2                !
 ! A40   A(12,14,13)           108.6709         estimate D2E/DX2                !
 ! A41   A(12,14,20)           108.7312         estimate D2E/DX2                !
 ! A42   A(12,14,21)           113.1287         estimate D2E/DX2                !
 ! A43   A(13,14,20)           110.0177         estimate D2E/DX2                !
 ! A44   A(13,14,21)           108.2011         estimate D2E/DX2                !
 ! A45   A(20,14,21)           108.0719         estimate D2E/DX2                !
 ! A46   A(37,25,40)           103.758          estimate D2E/DX2                !
 ! A47   A(1,27,29)            121.3516         estimate D2E/DX2                !
 ! A48   A(1,27,31)            118.7225         estimate D2E/DX2                !
 ! A49   A(29,27,31)           119.9141         estimate D2E/DX2                !
 ! A50   A(29,28,35)           122.5582         estimate D2E/DX2                !
 ! A51   A(29,28,42)           118.3004         estimate D2E/DX2                !
 ! A52   A(35,28,42)           119.1359         estimate D2E/DX2                !
 ! A53   A(27,29,28)           122.5189         estimate D2E/DX2                !
 ! A54   A(27,29,30)           117.0554         estimate D2E/DX2                !
 ! A55   A(28,29,30)           120.4232         estimate D2E/DX2                !
 ! A56   A(29,30,33)           124.3153         estimate D2E/DX2                !
 ! A57   A(29,30,34)           117.8252         estimate D2E/DX2                !
 ! A58   A(33,30,34)           117.8422         estimate D2E/DX2                !
 ! A59   A(27,31,32)           125.4997         estimate D2E/DX2                !
 ! A60   A(27,31,38)           114.8856         estimate D2E/DX2                !
 ! A61   A(32,31,38)           119.6053         estimate D2E/DX2                !
 ! A62   A(31,32,33)           118.8471         estimate D2E/DX2                !
 ! A63   A(31,32,37)           115.8377         estimate D2E/DX2                !
 ! A64   A(33,32,37)           125.3124         estimate D2E/DX2                !
 ! A65   A(24,33,30)           120.083          estimate D2E/DX2                !
 ! A66   A(24,33,32)           125.8988         estimate D2E/DX2                !
 ! A67   A(30,33,32)           114.011          estimate D2E/DX2                !
 ! A68   A(30,34,36)           121.1042         estimate D2E/DX2                !
 ! A69   A(30,34,39)           119.2453         estimate D2E/DX2                !
 ! A70   A(36,34,39)           119.6504         estimate D2E/DX2                !
 ! A71   A(9,35,28)            122.0201         estimate D2E/DX2                !
 ! A72   A(9,35,36)            123.5749         estimate D2E/DX2                !
 ! A73   A(28,35,36)           114.4049         estimate D2E/DX2                !
 ! A74   A(34,36,35)           123.6361         estimate D2E/DX2                !
 ! A75   A(34,36,41)           114.7796         estimate D2E/DX2                !
 ! A76   A(35,36,41)           121.5826         estimate D2E/DX2                !
 ! A77   A(25,37,26)           120.7949         estimate D2E/DX2                !
 ! A78   A(25,37,32)           114.6479         estimate D2E/DX2                !
 ! A79   A(26,37,32)           124.5532         estimate D2E/DX2                !
 ! D1    D(8,1,2,6)           -144.9769         estimate D2E/DX2                !
 ! D2    D(8,1,2,7)             -1.9146         estimate D2E/DX2                !
 ! D3    D(27,1,2,6)            -0.5801         estimate D2E/DX2                !
 ! D4    D(27,1,2,7)           142.4822         estimate D2E/DX2                !
 ! D5    D(8,1,3,4)             -0.0423         estimate D2E/DX2                !
 ! D6    D(8,1,3,5)            142.9901         estimate D2E/DX2                !
 ! D7    D(27,1,3,4)          -143.4651         estimate D2E/DX2                !
 ! D8    D(27,1,3,5)            -0.4327         estimate D2E/DX2                !
 ! D9    D(2,1,27,29)          -66.1361         estimate D2E/DX2                !
 ! D10   D(2,1,27,31)          115.1174         estimate D2E/DX2                !
 ! D11   D(3,1,27,29)         -135.3204         estimate D2E/DX2                !
 ! D12   D(3,1,27,31)           45.9332         estimate D2E/DX2                !
 ! D13   D(8,1,27,29)           79.9549         estimate D2E/DX2                !
 ! D14   D(8,1,27,31)          -98.7916         estimate D2E/DX2                !
 ! D15   D(6,2,3,4)            147.074          estimate D2E/DX2                !
 ! D16   D(6,2,3,5)              1.7973         estimate D2E/DX2                !
 ! D17   D(7,2,3,4)              0.6766         estimate D2E/DX2                !
 ! D18   D(7,2,3,5)           -144.6001         estimate D2E/DX2                !
 ! D19   D(13,9,10,11)         -56.9936         estimate D2E/DX2                !
 ! D20   D(13,9,10,16)        -177.6764         estimate D2E/DX2                !
 ! D21   D(13,9,10,17)          63.5944         estimate D2E/DX2                !
 ! D22   D(35,9,10,11)         121.3407         estimate D2E/DX2                !
 ! D23   D(35,9,10,16)           0.6579         estimate D2E/DX2                !
 ! D24   D(35,9,10,17)        -118.0713         estimate D2E/DX2                !
 ! D25   D(10,9,13,14)          58.7397         estimate D2E/DX2                !
 ! D26   D(10,9,13,18)         -59.3232         estimate D2E/DX2                !
 ! D27   D(10,9,13,19)        -177.871          estimate D2E/DX2                !
 ! D28   D(35,9,13,14)        -119.5466         estimate D2E/DX2                !
 ! D29   D(35,9,13,18)         122.3906         estimate D2E/DX2                !
 ! D30   D(35,9,13,19)           3.8427         estimate D2E/DX2                !
 ! D31   D(10,9,35,28)           3.5202         estimate D2E/DX2                !
 ! D32   D(10,9,35,36)        -176.5859         estimate D2E/DX2                !
 ! D33   D(13,9,35,28)        -178.4217         estimate D2E/DX2                !
 ! D34   D(13,9,35,36)           1.4722         estimate D2E/DX2                !
 ! D35   D(9,10,11,12)          57.0972         estimate D2E/DX2                !
 ! D36   D(9,10,11,22)         177.2234         estimate D2E/DX2                !
 ! D37   D(9,10,11,23)         -66.0098         estimate D2E/DX2                !
 ! D38   D(16,10,11,12)        179.9824         estimate D2E/DX2                !
 ! D39   D(16,10,11,22)        -59.8914         estimate D2E/DX2                !
 ! D40   D(16,10,11,23)         56.8754         estimate D2E/DX2                !
 ! D41   D(17,10,11,12)        -62.7651         estimate D2E/DX2                !
 ! D42   D(17,10,11,22)         57.3611         estimate D2E/DX2                !
 ! D43   D(17,10,11,23)        174.128          estimate D2E/DX2                !
 ! D44   D(10,11,12,14)        -59.0179         estimate D2E/DX2                !
 ! D45   D(10,11,12,15)        176.3584         estimate D2E/DX2                !
 ! D46   D(22,11,12,14)       -179.5479         estimate D2E/DX2                !
 ! D47   D(22,11,12,15)         55.8284         estimate D2E/DX2                !
 ! D48   D(23,11,12,14)         60.6907         estimate D2E/DX2                !
 ! D49   D(23,11,12,15)        -63.933          estimate D2E/DX2                !
 ! D50   D(11,12,14,13)         60.3388         estimate D2E/DX2                !
 ! D51   D(11,12,14,20)       -179.9178         estimate D2E/DX2                !
 ! D52   D(11,12,14,21)        -59.8502         estimate D2E/DX2                !
 ! D53   D(15,12,14,13)       -175.4131         estimate D2E/DX2                !
 ! D54   D(15,12,14,20)        -55.6697         estimate D2E/DX2                !
 ! D55   D(15,12,14,21)         64.3979         estimate D2E/DX2                !
 ! D56   D(9,13,14,12)         -59.8919         estimate D2E/DX2                !
 ! D57   D(9,13,14,20)        -178.8304         estimate D2E/DX2                !
 ! D58   D(9,13,14,21)          63.3081         estimate D2E/DX2                !
 ! D59   D(18,13,14,12)         57.2925         estimate D2E/DX2                !
 ! D60   D(18,13,14,20)        -61.646          estimate D2E/DX2                !
 ! D61   D(18,13,14,21)       -179.5075         estimate D2E/DX2                !
 ! D62   D(19,13,14,12)        176.7368         estimate D2E/DX2                !
 ! D63   D(19,13,14,20)         57.7983         estimate D2E/DX2                !
 ! D64   D(19,13,14,21)        -60.0632         estimate D2E/DX2                !
 ! D65   D(40,25,37,26)          0.0924         estimate D2E/DX2                !
 ! D66   D(40,25,37,32)       -179.2156         estimate D2E/DX2                !
 ! D67   D(1,27,29,28)          -2.7631         estimate D2E/DX2                !
 ! D68   D(1,27,29,30)         177.8038         estimate D2E/DX2                !
 ! D69   D(31,27,29,28)        175.9687         estimate D2E/DX2                !
 ! D70   D(31,27,29,30)         -3.4645         estimate D2E/DX2                !
 ! D71   D(1,27,31,32)        -177.652          estimate D2E/DX2                !
 ! D72   D(1,27,31,38)           1.2193         estimate D2E/DX2                !
 ! D73   D(29,27,31,32)          3.5831         estimate D2E/DX2                !
 ! D74   D(29,27,31,38)       -177.5457         estimate D2E/DX2                !
 ! D75   D(35,28,29,27)       -177.7562         estimate D2E/DX2                !
 ! D76   D(35,28,29,30)          1.6584         estimate D2E/DX2                !
 ! D77   D(42,28,29,27)          1.3896         estimate D2E/DX2                !
 ! D78   D(42,28,29,30)       -179.1958         estimate D2E/DX2                !
 ! D79   D(29,28,35,9)        -179.8006         estimate D2E/DX2                !
 ! D80   D(29,28,35,36)          0.2965         estimate D2E/DX2                !
 ! D81   D(42,28,35,9)           1.0605         estimate D2E/DX2                !
 ! D82   D(42,28,35,36)       -178.8424         estimate D2E/DX2                !
 ! D83   D(27,29,30,33)         -1.3636         estimate D2E/DX2                !
 ! D84   D(27,29,30,34)        177.0817         estimate D2E/DX2                !
 ! D85   D(28,29,30,33)        179.1906         estimate D2E/DX2                !
 ! D86   D(28,29,30,34)         -2.364          estimate D2E/DX2                !
 ! D87   D(29,30,33,24)       -175.1136         estimate D2E/DX2                !
 ! D88   D(29,30,33,32)          5.8053         estimate D2E/DX2                !
 ! D89   D(34,30,33,24)          6.4413         estimate D2E/DX2                !
 ! D90   D(34,30,33,32)       -172.6399         estimate D2E/DX2                !
 ! D91   D(29,30,34,36)          1.1496         estimate D2E/DX2                !
 ! D92   D(29,30,34,39)       -178.8534         estimate D2E/DX2                !
 ! D93   D(33,30,34,36)        179.6975         estimate D2E/DX2                !
 ! D94   D(33,30,34,39)         -0.3055         estimate D2E/DX2                !
 ! D95   D(27,31,32,33)          1.3369         estimate D2E/DX2                !
 ! D96   D(27,31,32,37)       -179.2389         estimate D2E/DX2                !
 ! D97   D(38,31,32,33)       -177.4854         estimate D2E/DX2                !
 ! D98   D(38,31,32,37)          1.9388         estimate D2E/DX2                !
 ! D99   D(31,32,33,24)        175.3421         estimate D2E/DX2                !
 ! D100  D(31,32,33,30)         -5.6394         estimate D2E/DX2                !
 ! D101  D(37,32,33,24)         -4.0227         estimate D2E/DX2                !
 ! D102  D(37,32,33,30)        174.9957         estimate D2E/DX2                !
 ! D103  D(31,32,37,25)        178.9312         estimate D2E/DX2                !
 ! D104  D(31,32,37,26)         -0.3469         estimate D2E/DX2                !
 ! D105  D(33,32,37,25)         -1.6869         estimate D2E/DX2                !
 ! D106  D(33,32,37,26)        179.035          estimate D2E/DX2                !
 ! D107  D(30,34,36,35)          0.8737         estimate D2E/DX2                !
 ! D108  D(30,34,36,41)       -178.6527         estimate D2E/DX2                !
 ! D109  D(39,34,36,35)       -179.1232         estimate D2E/DX2                !
 ! D110  D(39,34,36,41)          1.3503         estimate D2E/DX2                !
 ! D111  D(9,35,36,34)         178.5248         estimate D2E/DX2                !
 ! D112  D(9,35,36,41)          -1.9799         estimate D2E/DX2                !
 ! D113  D(28,35,36,34)         -1.574          estimate D2E/DX2                !
 ! D114  D(28,35,36,41)        177.9213         estimate D2E/DX2                !
 --------------------------------------------------------------------------------
 Trust Radius=3.00D-01 FncErr=1.00D-07 GrdErr=1.00D-06
 Number of steps in this run=    248 maximum allowed number of steps=    252.
 GradGradGradGradGradGradGradGradGradGradGradGradGradGradGradGradGradGrad

                          Input orientation:                          
 ---------------------------------------------------------------------
 Center     Atomic      Atomic             Coordinates (Angstroms)
 Number     Number       Type             X           Y           Z
 ---------------------------------------------------------------------
      1          6           0        9.365750    9.969720    6.165160
      2          6           0       10.305500    9.434880    7.212340
      3          6           0       10.283200   10.909300    6.908990
      4          1           0       11.118500   11.345900    6.362310
      5          1           0        9.834320   11.577000    7.643800
      6          1           0        9.842000    9.108890    8.142610
      7          1           0       11.160700    8.843790    6.887770
      8          1           0        9.587490    9.775780    5.111950
      9          7           0        7.608940    5.080920    6.441940
     10          6           0        9.033780    4.867880    6.203050
     11          6           0        9.640050    3.984540    7.299480
     12          7           0        8.925480    2.717040    7.362560
     13          6           0        6.915860    3.784960    6.520730
     14          6           0        7.509080    2.935930    7.641570
     15          1           0        9.354120    2.086770    8.049780
     16          1           0        9.587480    5.808230    6.179190
     17          1           0        9.156780    4.381230    5.220250
     18          1           0        7.082570    3.266160    5.558940
     19          1           0        5.846520    3.923560    6.661210
     20          1           0        7.002650    1.960850    7.683470
     21          1           0        7.329410    3.460400    8.607670
     22          1           0       10.700800    3.791630    7.080540
     23          1           0        9.590880    4.559230    8.253060
     24          8           0        3.976040   10.237100    7.579880
     25          8           0        4.204250   12.950100    7.212750
     26          8           0        6.243150   13.775700    6.666930
     27          7           0        7.945980    9.994810    6.469120
     28          6           0        7.781080    7.525560    6.476230
     29          6           0        7.207440    8.797190    6.642030
     30          6           0        5.846260    8.927060    6.981330
     31          6           0        7.316230   11.202600    6.562530
     32          6           0        5.991360   11.390600    6.887480
     33          6           0        5.161880   10.215100    7.192560
     34          6           0        5.084740    7.753900    7.095060
     35          6           0        7.031820    6.327400    6.603540
     36          6           0        5.649850    6.524840    6.906610
     37          6           0        5.526570   12.793200    6.910270
     38          1           0        7.952500   12.067400    6.374460
     39          1           0        4.022660    7.828670    7.338520
     40          1           0        4.068090   13.927200    7.170810
     41          9           0        4.771600    5.457340    7.021530
     42          1           0        8.837650    7.465220    6.227460
 ---------------------------------------------------------------------
                    Distance matrix (angstroms):
                    1          2          3          4          5
     1  C    0.000000
     2  C    1.505247   0.000000
     3  C    1.509241   1.505468   0.000000
     4  H    2.237157   2.243996   1.089589   0.000000
     5  H    2.233670   2.235363   1.089616   1.828864   0.000000
     6  H    2.208654   1.089268   2.226646   3.130996   2.518023
     7  H    2.238689   1.089082   2.244279   2.557038   3.130703
     8  H    1.093633   2.245749   2.235673   2.524414   3.116983
     9  N    5.202245   5.178988   6.429605   7.181457   6.971072
    10  C    5.112769   4.847002   6.209521   6.807067   6.908612
    11  C    6.097893   5.491505   6.965517   7.566619   7.602746
    12  N    7.364032   6.859766   8.316385   8.959189   8.910891
    13  C    6.661805   6.624921   7.889610   8.651884   8.396105
    14  C    7.423019   7.088057   8.473904   9.240780   8.948454
    15  H    8.105111   7.456618   8.944363   9.575598   9.511040
    16  H    4.167416   3.838690   5.199764   5.748334   5.956905
    17  H    5.671661   5.552239   6.836400   7.325249   7.623107
    18  H    7.107611   7.153609   8.395490   9.067322   8.999379
    19  H    7.013351   7.110618   8.279256   9.109020   8.685803
    20  H    8.487138   8.184858   9.562248  10.332708  10.024484
    21  H    7.244569   6.818979   8.191245   9.032162   8.548849
    22  H    6.386633   5.658613   7.131973   7.599824   7.853664
    23  H    5.803741   5.036441   6.527574   7.208845   7.048373
    24  O    5.578700   6.390673   6.378261   7.329846   6.009897
    25  O    6.051545   7.041450   6.419561   7.148675   5.811101
    26  O    4.948524   5.970166   4.959521   5.455800   4.322622
    27  N    1.452160   2.536382   2.548014   3.449889   2.729290
    28  C    2.929481   3.249624   4.230553   5.074086   4.689689
    29  C    2.502106   3.214013   3.740665   4.676597   3.953655
    30  C    3.760330   4.494004   4.860138   5.833566   4.833805
    31  C    2.424547   3.533104   3.001495   3.810234   2.765881
    32  C    3.731910   4.747860   4.318796   5.154160   3.921110
    33  C    4.334546   5.202496   5.175929   6.119587   4.887748
    34  C    4.909340   5.485962   6.084008   7.060145   6.121742
    35  C    4.348092   4.554564   5.626596   6.476456   6.041063
    36  C    5.121021   5.498807   6.378983   7.310610   6.601330
    37  C    4.823539   5.848738   5.116113   5.802122   4.535848
    38  H    2.537980   3.628886   2.656893   3.247194   2.322275
    39  H    5.874477   6.486132   6.990646   7.979652   6.922324
    40  H    6.688661   7.686868   6.914034   7.551494   6.244723
    41  F    6.496242   6.817718   7.753339   8.682906   7.966718
    42  H    2.560330   2.646532   3.796812   4.503347   4.461626
                    6          7          8          9         10
     6  H    0.000000
     7  H    1.839530   0.000000
     8  H    3.113586   2.548947   0.000000
     9  N    4.909519   5.193549   5.265477   0.000000
    10  C    4.732999   4.560755   5.058120   1.460350   0.000000
    11  C    5.197174   5.108247   6.190841   2.462282   1.532975
    12  N    6.504170   6.539014   7.438368   2.858102   2.445875
    13  C    6.287847   6.614011   6.709113   1.471761   2.399838
    14  C    6.618081   6.986083   7.583028   2.459688   2.850698
    15  H    7.039660   7.090227   8.234451   3.820437   3.353745
    16  H    3.848916   3.491666   4.108583   2.124297   1.091518
    17  H    5.600043   5.168245   5.412801   2.092343   1.103564
    18  H    6.958973   7.036113   6.989247   2.085691   2.605303
    19  H    6.711636   7.245723   7.116428   2.119832   3.355634
    20  H    7.705011   8.080680   8.623644   3.412304   3.842910
    21  H    6.199583   6.827718   7.563267   2.719303   3.266202
    22  H    5.489880   5.076710   6.397254   3.410231   2.169622
    23  H    4.557923   4.762962   6.089251   2.735032   2.146664
    24  O    5.999917   7.351168   6.147509   6.409295   7.503660
    25  O    6.885039   8.084528   6.593098   8.608720   9.469220
    26  O    6.075234   6.968128   5.440766   8.804272   9.346232
    27  N    2.679611   3.440137   2.141130   4.925510   5.247810
    28  C    3.087256   3.650880   3.191844   2.450933   2.950788
    29  C    3.047918   3.961165   2.993897   3.743247   4.355192
    30  C    4.165042   5.315916   4.267518   4.265065   5.219478
    31  C    3.641399   4.522136   3.049364   6.129860   6.573270
    32  C    4.648546   5.762666   4.323459   6.528946   7.229844
    33  C    4.902022   6.161106   4.909986   5.736840   6.675590
    34  C    5.056173   6.176416   5.319350   3.734029   4.971892
    35  C    4.242939   4.843620   4.543965   1.383074   2.509668
    36  C    5.077315   5.978909   5.412432   2.477672   3.832949
    37  C    5.806525   6.880535   5.369343   8.002178   8.695480
    38  H    3.930566   4.576865   3.085230   6.995248   7.282282
    39  H    6.012507   7.223937   6.302078   4.606017   5.930168
    40  H    7.582779   8.730767   7.206731   9.556440  10.376219
    41  F    6.348196   7.232326   6.744495   2.920294   4.379903
    42  H    2.716279   2.780832   2.673071   2.690839   2.604849
                   11         12         13         14         15
    11  C    0.000000
    12  N    1.456415   0.000000
    13  C    2.840334   2.426459   0.000000
    14  C    2.399509   1.460119   1.526121   0.000000
    15  H    2.060640   1.026277   3.341699   2.071685   0.000000
    16  H    2.140948   3.375509   3.368653   3.835154   4.171670
    17  H    2.171200   2.722594   2.658667   3.265976   3.648250
    18  H    3.175886   2.636455   1.105435   2.151351   3.571440
    19  H    3.847334   3.380470   1.087397   2.168092   4.195853
    20  H    3.346438   2.090952   2.164919   1.099549   2.383160
    21  H    2.706500   2.156461   2.152134   1.113867   2.509492
    22  H    1.100154   2.094287   3.826121   3.351724   2.378975
    23  H    1.114451   2.151607   3.279664   2.709781   2.492075
    24  O    8.441217   9.005303   7.168992   8.111304   9.776115
    25  O   10.485071  11.270669   9.582876  10.554117  12.051295
    26  O   10.382960  11.400559  10.014430  10.956875  12.174625
    27  N    6.299422   7.397540   6.294922   7.168913   8.186479
    28  C    4.083177   5.021663   3.839619   4.743069   5.876304
    29  C    5.432443   6.359170   5.022169   5.953523   7.184687
    30  C    6.238795   6.941994   5.272323   6.252562   7.761201
    31  C    7.618637   8.673780   7.428555   8.339026   9.458502
    32  C    8.266342   9.168719   7.670395   8.622852   9.960941
    33  C    7.673677   8.391334   6.698843   7.661415   9.185829
    34  C    5.916140   6.339779   4.408553   5.421156   7.159292
    35  C    3.574380   4.146898   2.546430   3.578736   5.046546
    36  C    4.746490   5.043509   3.042799   4.108184   5.892785
    37  C    9.729578  10.643597   9.123062  10.081216  11.426997
    38  H    8.308797   9.452633   8.348343   9.229623  10.216859
    39  H    6.806903   7.082865   5.038946   6.015469   7.867641
    40  H   11.398236  12.218784  10.554498  11.526927  12.996557
    41  F    5.093938   4.988012   2.765051   3.773030   5.780790
    42  H    3.729371   4.882764   4.162163   4.927400   5.702220
                   16         17         18         19         20
    16  H    0.000000
    17  H    1.772399   0.000000
    18  H    3.622348   2.379168   0.000000
    19  H    4.216528   3.639182   1.781851   0.000000
    20  H    4.873042   4.070131   2.494764   2.496774   0.000000
    21  H    4.063090   3.957502   3.064868   2.490419   1.791527
    22  H    2.473578   2.488434   3.960173   4.874144   4.170323
    23  H    2.420940   3.068886   3.901529   4.118045   3.711461
    24  O    7.284578   8.166954   7.894855   6.648567   8.812912
    25  O    9.002984  10.095699  10.237114   9.191282  11.349724
    26  O    8.654653   9.941740  10.601071   9.860122  11.882797
    27  N    4.506222   5.876903   6.844606   6.426874   8.179794
    28  C    2.510087   3.654702   4.412689   4.092816   5.747119
    29  C    3.848726   5.032106   5.637461   5.060113   6.918243
    30  C    4.936320   5.892836   5.966359   5.013730   7.096360
    31  C    5.865557   7.191692   8.003054   7.426588   9.314762
    32  C    6.678069   7.869613   8.304353   7.471871   9.517168
    33  C    6.327192   7.340523   7.392262   6.350948   8.471250
    34  C    4.989902   5.609931   5.146921   3.929382   6.130582
    35  C    2.642160   3.196330   3.234958   2.680804   4.498206
    36  C    4.067874   4.442683   3.806297   2.620221   4.823234
    37  C    8.112661   9.316428   9.747396   8.878903  10.959765
    38  H    6.472132   7.865094   8.881648   8.416621  10.235139
    39  H    6.032698   6.536903   5.774639   4.362923   6.590193
    40  H    9.867353  10.992042  11.195668  10.173265  12.331585
    41  F    4.901567   4.861319   3.504429   1.907292   4.200142
    42  H    1.819393   3.259956   4.599927   4.656002   5.982080
                   21         22         23         24         25
    21  H    0.000000
    22  H    3.715927   0.000000
    23  H    2.539177   1.787718   0.000000
    24  O    7.630538   9.328227   8.013601   0.000000
    25  O   10.087955  11.229435  10.025205   2.747223   0.000000
    26  O   10.552338  10.941818   9.933097   4.300576   2.266417
    27  N    6.903048   6.814859   5.952619   4.129518   4.825688
    28  C    4.612219   4.778304   3.902770   4.800919   6.539251
    29  C    5.688580   6.119762   5.122159   3.659897   5.156698
    30  C    5.893139   7.067464   5.892149   2.360549   4.351391
    31  C    8.007773   8.163708   7.222623   3.622715   3.627804
    32  C    8.224202   8.942060   7.841490   2.423117   2.394077
    33  C    7.233719   8.482520   7.261513   1.247685   2.897876
    34  C    5.075497   6.873131   5.643773   2.762345   5.271585
    35  C    3.510667   4.485429   3.520814   5.057350   7.226787
    36  C    3.886556   5.745675   4.605244   4.127446   6.592985
    37  C    9.655701  10.384118   9.280084   3.063685   1.365519
    38  H    8.913805   8.748718   7.911134   4.540404   3.940973
    39  H    5.623799   7.807804   6.521556   2.420943   5.126191
    40  H   11.056884  12.113248  10.928465   3.713846   0.987432
    41  F    3.611925   6.159017   5.054575   4.877579   7.516642
    42  H    4.896812   4.206464   3.621490   5.757396   7.247282
                   26         27         28         29         30
    26  O    0.000000
    27  N    4.151372   0.000000
    28  C    6.439398   2.474760   0.000000
    29  C    5.071098   1.417615   1.404847   0.000000
    30  C    4.875006   2.410658   2.441896   1.408830   0.000000
    31  C    2.789847   1.365308   3.707311   2.409181   2.741220
    32  C    2.408473   2.437990   4.279107   2.874869   2.469593
    33  C    3.758098   2.884979   3.821906   2.549092   1.473785
    34  C    6.147136   3.687841   2.775849   2.408225   1.403265
    35  C    7.490206   3.782017   1.418868   2.476325   2.882102
    36  C    7.279040   4.183814   2.393493   2.767610   2.411394
    37  C    1.240164   3.725472   5.746237   4.343429   3.879986
    38  H    2.434277   2.074761   4.546213   3.364667   3.829657
    39  H    6.383477   4.565135   3.867963   3.400875   2.158602
    40  H    2.237797   5.567234   7.433016   6.037560   5.310291
    41  F    8.454958   5.565113   3.692134   4.151137   3.632557
    42  H    6.837157   2.693010   1.087137   2.145599   3.413753
                   31         32         33         34         35
    31  C    0.000000
    32  C    1.377032   0.000000
    33  C    2.452207   1.470684   0.000000
    34  C    4.142061   3.753750   2.464338   0.000000
    35  C    4.883661   5.176792   4.354059   2.463253   0.000000
    36  C    4.977615   4.877767   3.733350   1.365815   1.428522
    37  C    2.419466   1.477781   2.619024   5.062006   6.645783
    38  H    1.089995   2.137128   3.447878   5.229684   5.817880
    39  H    4.778406   4.094699   2.648429   1.092189   3.442245
    40  H    4.282974   3.195870   3.869953   6.256912   8.176946
    41  F    6.300304   6.058825   4.776803   2.318976   2.457705
    42  H    4.049074   4.893424   4.690900   3.862693   2.167278
                   36         37         38         39         40
    36  C    0.000000
    37  C    6.269573   0.000000
    38  H    6.025392   2.588245   0.000000
    39  H    2.129382   5.204969   5.860024   0.000000
    40  H    7.574081   1.865744   4.379688   6.101005   0.000000
    41  F    1.387114   7.375446   7.364083   2.506910   8.500338
    42  H    3.392290   6.310060   4.688834   4.954864   8.086767
                   41         42
    41  F    0.000000
    42  H    4.603791   0.000000
 Stoichiometry    C17H18FN3O3
 Framework group  C1[X(C17H18FN3O3)]
 Deg. of freedom   120
 Full point group                 C1      NOp   1
 Largest Abelian subgroup         C1      NOp   1
 Largest concise Abelian subgroup C1      NOp   1
                         Standard orientation:                         
 ---------------------------------------------------------------------
 Center     Atomic      Atomic             Coordinates (Angstroms)
 Number     Number       Type             X           Y           Z
 ---------------------------------------------------------------------
      1          6           0       -1.249326    2.673173   -0.493619
      2          6           0       -0.501529    3.375225    0.608058
      3          6           0       -1.943752    3.717948    0.345443
      4          1           0       -2.179996    4.673349   -0.122107
      5          1           0       -2.690404    3.375994    1.061573
      6          1           0       -0.283144    2.774281    1.489919
      7          1           0        0.268584    4.095091    0.334528
      8          1           0       -1.019125    2.930107   -1.531417
      9          7           0        3.101685   -0.178502   -0.491843
     10          6           0        3.636853    1.173709   -0.625045
     11          6           0        4.646834    1.468124    0.489976
     12          7           0        5.714786    0.478266    0.461629
     13          6           0        4.202448   -1.155366   -0.503662
     14          6           0        5.176258   -0.867713    0.635634
     15          1           0        6.433615    0.692330    1.162132
     16          1           0        2.850221    1.929044   -0.579321
     17          1           0        4.129562    1.261729   -1.608581
     18          1           0        4.736755   -1.034089   -1.463763
     19          1           0        3.821149   -2.171909   -0.442966
     20          1           0        6.007795   -1.586689    0.610590
     21          1           0        4.633473   -1.000605    1.599181
     22          1           0        5.078239    2.470284    0.348894
     23          1           0        4.085321    1.474363    1.452610
     24          8           0       -2.745121   -2.607773    0.504433
     25          8           0       -5.334703   -1.731774    0.232550
     26          8           0       -5.670434    0.480194   -0.129569
     27          7           0       -1.599885    1.277263   -0.300457
     28          6           0        0.763902    0.548356   -0.375585
     29          6           0       -0.604437    0.271220   -0.219252
     30          6           0       -1.043014   -1.046661    0.016631
     31          6           0       -2.919802    0.936973   -0.222425
     32          6           0       -3.406644   -0.331139    0.003616
     33          6           0       -2.452552   -1.431134    0.210084
     34          6           0       -0.077236   -2.064491    0.037759
     35          6           0        1.756965   -0.464457   -0.340673
     36          6           0        1.247505   -1.783965   -0.140614
     37          6           0       -4.878495   -0.460823    0.029578
     38          1           0       -3.615344    1.768478   -0.336047
     39          1           0       -0.393801   -3.097153    0.199853
     40          1           0       -6.317108   -1.635427    0.207616
     41          9           0        2.083466   -2.890760   -0.124414
     42          1           0        1.065104    1.579433   -0.542994
 ---------------------------------------------------------------------
 Rotational constants (GHZ):      0.4521677      0.1319381      0.1047020
 Standard basis: 3-21G (6D, 7F)
 There are   252 symmetry adapted cartesian basis functions of A   symmetry.
 There are   252 symmetry adapted basis functions of A   symmetry.
   252 basis functions,   414 primitive gaussians,   252 cartesian basis functions
    87 alpha electrons       87 beta electrons
       nuclear repulsion energy      2057.0561038325 Hartrees.
 NAtoms=   42 NActive=   42 NUniq=   42 SFac= 1.00D+00 NAtFMM=   60 NAOKFM=F Big=F
 Integral buffers will be    131072 words long.
 Raffenetti 2 integral format.
 Two-electron integral symmetry is turned on.
 One-electron integrals computed using PRISM.
 PrsmSu:  requested number of processors reduced to:   9 ShMem   1 Linda.
 NBasis=   252 RedAO= T EigKep=  1.27D-03  NBF=   252
 NBsUse=   252 1.00D-06 EigRej= -1.00D+00 NBFU=   252
 ExpMin= 1.83D-01 ExpMax= 4.14D+02 ExpMxC= 4.14D+02 IAcc=1 IRadAn=         1 AccDes= 0.00D+00
 Harris functional with IExCor=  402 and IRadAn=       1 diagonalized for initial guess.
 HarFok:  IExCor=  402 AccDes= 0.00D+00 IRadAn=         1 IDoV= 1 UseB2=F ITyADJ=14
 ICtDFT=  3500011 ScaDFX=  1.000000  1.000000  1.000000  1.000000
 FoFCou: FMM=F IPFlag=           0 FMFlag=      100000 FMFlg1=           0
         NFxFlg=           0 DoJE=T BraDBF=F KetDBF=T FulRan=T
         wScrn=  0.000000 ICntrl=     500 IOpCl=  0 I1Cent=   200000004 NGrid=           0
         NMat0=    1 NMatS0=      1 NMatT0=    0 NMatD0=    1 NMtDS0=    0 NMtDT0=    0
 Petite list used in FoFCou.
 Requested convergence on RMS density matrix=1.00D-08 within 128 cycles.
 Requested convergence on MAX density matrix=1.00D-06.
 Requested convergence on             energy=1.00D-06.
 No special actions if energy rises.
 Integral accuracy reduced to 1.0D-05 until final iterations.
 EnCoef did     1 forward-backward iterations
 Initial convergence to 1.0D-05 achieved.  Increase integral accuracy.
 SCF Done:  E(RB3LYP) =  -1142.07342475     A.U. after   17 cycles
            NFock= 17  Conv=0.67D-08     -V/T= 2.0083

 **********************************************************************

            Population analysis using the SCF density.

 **********************************************************************

 Orbital symmetries:
       Occupied  (A) (A) (A) (A) (A) (A) (A) (A) (A) (A) (A) (A)
                 (A) (A) (A) (A) (A) (A) (A) (A) (A) (A) (A) (A)
                 (A) (A) (A) (A) (A) (A) (A) (A) (A) (A) (A) (A)
                 (A) (A) (A) (A) (A) (A) (A) (A) (A) (A) (A) (A)
                 (A) (A) (A) (A) (A) (A) (A) (A) (A) (A) (A) (A)
                 (A) (A) (A) (A) (A) (A) (A) (A) (A) (A) (A) (A)
                 (A) (A) (A) (A) (A) (A) (A) (A) (A) (A) (A) (A)
                 (A) (A) (A)
       Virtual   (A) (A) (A) (A) (A) (A) (A) (A) (A) (A) (A) (A)
                 (A) (A) (A) (A) (A) (A) (A) (A) (A) (A) (A) (A)
                 (A) (A) (A) (A) (A) (A) (A) (A) (A) (A) (A) (A)
                 (A) (A) (A) (A) (A) (A) (A) (A) (A) (A) (A) (A)
                 (A) (A) (A) (A) (A) (A) (A) (A) (A) (A) (A) (A)
                 (A) (A) (A) (A) (A) (A) (A) (A) (A) (A) (A) (A)
                 (A) (A) (A) (A) (A) (A) (A) (A) (A) (A) (A) (A)
                 (A) (A) (A) (A) (A) (A) (A) (A) (A) (A) (A) (A)
                 (A) (A) (A) (A) (A) (A) (A) (A) (A) (A) (A) (A)
                 (A) (A) (A) (A) (A) (A) (A) (A) (A) (A) (A) (A)
                 (A) (A) (A) (A) (A) (A) (A) (A) (A) (A) (A) (A)
                 (A) (A) (A) (A) (A) (A) (A) (A) (A) (A) (A) (A)
                 (A) (A) (A) (A) (A) (A) (A) (A) (A) (A) (A) (A)
                 (A) (A) (A) (A) (A) (A) (A) (A) (A)
 The electronic state is 1-A.
 Alpha  occ. eigenvalues --  -24.57170 -19.06352 -19.00846 -18.98725 -14.33766
 Alpha  occ. eigenvalues --  -14.29450 -14.24448 -10.24619 -10.21167 -10.20312
 Alpha  occ. eigenvalues --  -10.20030 -10.19372 -10.19339 -10.18992 -10.17255
 Alpha  occ. eigenvalues --  -10.16201 -10.15872 -10.15795 -10.15712 -10.15534
 Alpha  occ. eigenvalues --  -10.14170 -10.13624 -10.13404 -10.13264  -1.20499
 Alpha  occ. eigenvalues --   -1.09081  -1.01310  -1.00326  -0.99569  -0.97619
 Alpha  occ. eigenvalues --   -0.91815  -0.89876  -0.86325  -0.80579  -0.78424
 Alpha  occ. eigenvalues --   -0.77964  -0.76202  -0.71092  -0.68039  -0.66953
 Alpha  occ. eigenvalues --   -0.65177  -0.64558  -0.63151  -0.60797  -0.59650
 Alpha  occ. eigenvalues --   -0.58924  -0.56063  -0.55895  -0.53849  -0.53218
 Alpha  occ. eigenvalues --   -0.52160  -0.50439  -0.48925  -0.48130  -0.47771
 Alpha  occ. eigenvalues --   -0.46758  -0.46148  -0.45581  -0.45395  -0.44581
 Alpha  occ. eigenvalues --   -0.44284  -0.43994  -0.43099  -0.42742  -0.41597
 Alpha  occ. eigenvalues --   -0.41128  -0.40827  -0.40022  -0.39557  -0.38578
 Alpha  occ. eigenvalues --   -0.36907  -0.36821  -0.36365  -0.36006  -0.35720
 Alpha  occ. eigenvalues --   -0.35370  -0.33825  -0.33469  -0.32887  -0.29962
 Alpha  occ. eigenvalues --   -0.28259  -0.25969  -0.25390  -0.22339  -0.21553
 Alpha  occ. eigenvalues --   -0.21516  -0.19552
 Alpha virt. eigenvalues --   -0.03859  -0.02358   0.01516   0.05000   0.07961
 Alpha virt. eigenvalues --    0.08784   0.09307   0.10146   0.10878   0.11633
 Alpha virt. eigenvalues --    0.12007   0.12591   0.13458   0.14038   0.14658
 Alpha virt. eigenvalues --    0.15114   0.15570   0.16260   0.17019   0.17434
 Alpha virt. eigenvalues --    0.18313   0.18736   0.18966   0.19897   0.20302
 Alpha virt. eigenvalues --    0.21575   0.22190   0.22546   0.23530   0.24162
 Alpha virt. eigenvalues --    0.24507   0.24932   0.25453   0.26151   0.27472
 Alpha virt. eigenvalues --    0.28157   0.28941   0.30193   0.30763   0.31449
 Alpha virt. eigenvalues --    0.31636   0.36742   0.39324   0.40654   0.41447
 Alpha virt. eigenvalues --    0.44062   0.45174   0.50646   0.54858   0.57885
 Alpha virt. eigenvalues --    0.61536   0.64353   0.64559   0.66149   0.66519
 Alpha virt. eigenvalues --    0.67032   0.68809   0.69110   0.69501   0.70009
 Alpha virt. eigenvalues --    0.71092   0.71562   0.72039   0.72382   0.72722
 Alpha virt. eigenvalues --    0.73204   0.74128   0.74718   0.75125   0.75357
 Alpha virt. eigenvalues --    0.76210   0.76658   0.77520   0.78519   0.79245
 Alpha virt. eigenvalues --    0.79574   0.80662   0.82983   0.83819   0.84055
 Alpha virt. eigenvalues --    0.84963   0.85735   0.87466   0.88115   0.89201
 Alpha virt. eigenvalues --    0.90996   0.91613   0.93794   0.95988   0.96571
 Alpha virt. eigenvalues --    0.98102   0.98881   0.99496   0.99776   1.00484
 Alpha virt. eigenvalues --    1.01006   1.02706   1.03022   1.03609   1.05443
 Alpha virt. eigenvalues --    1.05768   1.06729   1.07829   1.09754   1.10118
 Alpha virt. eigenvalues --    1.10369   1.12422   1.14592   1.16079   1.17336
 Alpha virt. eigenvalues --    1.20020   1.24051   1.25362   1.30222   1.31111
 Alpha virt. eigenvalues --    1.31875   1.33423   1.33559   1.36833   1.38192
 Alpha virt. eigenvalues --    1.40336   1.41923   1.43160   1.45015   1.46419
 Alpha virt. eigenvalues --    1.48061   1.51611   1.52317   1.55147   1.57457
 Alpha virt. eigenvalues --    1.58714   1.60745   1.61572   1.62429   1.63021
 Alpha virt. eigenvalues --    1.66411   1.66664   1.70390   1.71397   1.75143
 Alpha virt. eigenvalues --    1.80659   1.82920   1.88095   1.88254   1.89819
 Alpha virt. eigenvalues --    1.90288   1.91067   1.92492   1.95952   1.98487
 Alpha virt. eigenvalues --    2.00625   2.01470   2.06982   2.11694   2.17118
 Alpha virt. eigenvalues --    2.30906   2.44921   2.55754   2.66791   2.88054
 Alpha virt. eigenvalues --    3.00757   3.15652   3.44168   3.58030   3.98731
          Condensed to atoms (all electrons):
               1          2          3          4          5          6
     1  C    5.388785   0.110311   0.125182  -0.024634  -0.028128  -0.028698
     2  C    0.110311   5.524627   0.119415  -0.025270  -0.022648   0.376894
     3  C    0.125182   0.119415   5.508588   0.377931   0.376556  -0.024394
     4  H   -0.024634  -0.025270   0.377931   0.470790  -0.017419   0.001333
     5  H   -0.028128  -0.022648   0.376556  -0.017419   0.458268  -0.003590
     6  H   -0.028698   0.376894  -0.024394   0.001333  -0.003590   0.455523
     7  H   -0.025422   0.375047  -0.024880  -0.003147   0.001231  -0.016802
     8  H    0.381794  -0.033231  -0.027056  -0.002010   0.001373   0.001500
     9  N    0.000001   0.000001   0.000000   0.000000   0.000000  -0.000001
    10  C   -0.000004  -0.000039   0.000000   0.000000   0.000000   0.000001
    11  C    0.000000   0.000001   0.000000   0.000000   0.000000   0.000001
    12  N    0.000000   0.000000   0.000000   0.000000   0.000000   0.000000
    13  C    0.000000   0.000000   0.000000   0.000000   0.000000   0.000000
    14  C    0.000000   0.000000   0.000000   0.000000   0.000000   0.000000
    15  H    0.000000   0.000000   0.000000   0.000000   0.000000   0.000000
    16  H   -0.000052   0.000173   0.000000   0.000000   0.000000   0.000006
    17  H    0.000000   0.000000   0.000000   0.000000   0.000000   0.000000
    18  H    0.000000   0.000000   0.000000   0.000000   0.000000   0.000000
    19  H    0.000000   0.000000   0.000000   0.000000   0.000000   0.000000
    20  H    0.000000   0.000000   0.000000   0.000000   0.000000   0.000000
    21  H    0.000000   0.000000   0.000000   0.000000   0.000000   0.000000
    22  H    0.000000   0.000000   0.000000   0.000000   0.000000   0.000000
    23  H    0.000000   0.000001   0.000000   0.000000   0.000000   0.000002
    24  O    0.000000   0.000000   0.000000   0.000000   0.000000   0.000000
    25  O    0.000000   0.000000   0.000000   0.000000   0.000000   0.000000
    26  O    0.000003   0.000000  -0.000001   0.000000  -0.000003   0.000000
    27  N    0.268190  -0.042091  -0.031071   0.001104  -0.002583  -0.001386
    28  C   -0.001534  -0.002227   0.000448  -0.000001  -0.000015   0.000713
    29  C   -0.054158  -0.003766   0.003261  -0.000036  -0.000019   0.002364
    30  C    0.001727   0.000281  -0.000096   0.000000  -0.000002  -0.000090
    31  C   -0.064678   0.004210  -0.009920   0.000111   0.003606   0.000130
    32  C    0.002294  -0.000196   0.000568  -0.000003  -0.000042  -0.000002
    33  C    0.000024   0.000003  -0.000012   0.000000  -0.000002  -0.000001
    34  C   -0.000087   0.000001   0.000001   0.000000   0.000000   0.000000
    35  C    0.000133   0.000073  -0.000006   0.000000   0.000000   0.000001
    36  C    0.000000  -0.000004   0.000000   0.000000   0.000000   0.000000
    37  C   -0.000045   0.000001  -0.000005   0.000000   0.000005   0.000000
    38  H   -0.001442  -0.000166   0.001403   0.000006   0.001019   0.000024
    39  H    0.000000   0.000000   0.000000   0.000000   0.000000   0.000000
    40  H    0.000000   0.000000   0.000000   0.000000   0.000000   0.000000
    41  F    0.000000   0.000000   0.000000   0.000000   0.000000   0.000000
    42  H    0.004720   0.000464  -0.000159   0.000003   0.000007  -0.000675
               7          8          9         10         11         12
     1  C   -0.025422   0.381794   0.000001  -0.000004   0.000000   0.000000
     2  C    0.375047  -0.033231   0.000001  -0.000039   0.000001   0.000000
     3  C   -0.024880  -0.027056   0.000000   0.000000   0.000000   0.000000
     4  H   -0.003147  -0.002010   0.000000   0.000000   0.000000   0.000000
     5  H    0.001231   0.001373   0.000000   0.000000   0.000000   0.000000
     6  H   -0.016802   0.001500  -0.000001   0.000001   0.000001   0.000000
     7  H    0.484091  -0.001819   0.000000  -0.000003  -0.000001   0.000000
     8  H   -0.001819   0.485265   0.000000   0.000003   0.000000   0.000000
     9  N    0.000000   0.000000   7.309860   0.280006  -0.060212  -0.002791
    10  C   -0.000003   0.000003   0.280006   5.256440   0.249316  -0.060720
    11  C   -0.000001   0.000000  -0.060212   0.249316   5.274938   0.294256
    12  N    0.000000   0.000000  -0.002791  -0.060720   0.294256   6.941932
    13  C    0.000000   0.000000   0.264316  -0.082930  -0.009202  -0.066553
    14  C    0.000000   0.000000  -0.063320  -0.008288  -0.095072   0.288580
    15  H    0.000000   0.000000  -0.000200   0.005110  -0.044260   0.327914
    16  H    0.000167  -0.000012  -0.028464   0.351856  -0.037750   0.002184
    17  H    0.000000   0.000000  -0.046421   0.352158  -0.054876   0.003058
    18  H    0.000000   0.000000  -0.047398  -0.004808  -0.000831   0.003963
    19  H    0.000000   0.000000  -0.024587   0.002549   0.000050   0.001722
    20  H    0.000000   0.000000   0.002680  -0.000072   0.004729  -0.031955
    21  H    0.000000   0.000000  -0.000152  -0.000197  -0.005851  -0.049652
    22  H    0.000000   0.000000   0.002671  -0.029972   0.361817  -0.032426
    23  H    0.000000   0.000000  -0.000206  -0.061906   0.326103  -0.050570
    24  O    0.000000   0.000000   0.000000   0.000000   0.000000   0.000000
    25  O    0.000000   0.000000   0.000000   0.000000   0.000000   0.000000
    26  O    0.000000   0.000000   0.000000   0.000000   0.000000   0.000000
    27  N    0.001252  -0.037748  -0.000003   0.000000   0.000000   0.000000
    28  C   -0.000125   0.000891  -0.053320  -0.005901   0.000323   0.000003
    29  C    0.000028   0.001068   0.004816   0.000569  -0.000008   0.000000
    30  C   -0.000002  -0.000025  -0.000370   0.000001   0.000000   0.000000
    31  C   -0.000029   0.000564   0.000000   0.000000   0.000000   0.000000
    32  C    0.000001  -0.000037   0.000000   0.000000   0.000000   0.000000
    33  C    0.000000   0.000006   0.000000   0.000000   0.000000   0.000000
    34  C    0.000000  -0.000001   0.004305  -0.000107   0.000002   0.000000
    35  C    0.000003  -0.000020   0.265051  -0.057776   0.001908  -0.000054
    36  C    0.000000   0.000000  -0.063369   0.000447  -0.000043  -0.000001
    37  C    0.000000   0.000001   0.000000   0.000000   0.000000   0.000000
    38  H    0.000001   0.000198   0.000000   0.000000   0.000000   0.000000
    39  H    0.000000   0.000000  -0.000008   0.000000   0.000000   0.000000
    40  H    0.000000   0.000000   0.000000   0.000000   0.000000   0.000000
    41  F    0.000000   0.000000  -0.001929  -0.000027   0.000000   0.000000
    42  H    0.000392   0.000130  -0.007930   0.001464  -0.000230   0.000002
              13         14         15         16         17         18
     1  C    0.000000   0.000000   0.000000  -0.000052   0.000000   0.000000
     2  C    0.000000   0.000000   0.000000   0.000173   0.000000   0.000000
     3  C    0.000000   0.000000   0.000000   0.000000   0.000000   0.000000
     4  H    0.000000   0.000000   0.000000   0.000000   0.000000   0.000000
     5  H    0.000000   0.000000   0.000000   0.000000   0.000000   0.000000
     6  H    0.000000   0.000000   0.000000   0.000006   0.000000   0.000000
     7  H    0.000000   0.000000   0.000000   0.000167   0.000000   0.000000
     8  H    0.000000   0.000000   0.000000  -0.000012   0.000000   0.000000
     9  N    0.264316  -0.063320  -0.000200  -0.028464  -0.046421  -0.047398
    10  C   -0.082930  -0.008288   0.005110   0.351856   0.352158  -0.004808
    11  C   -0.009202  -0.095072  -0.044260  -0.037750  -0.054876  -0.000831
    12  N   -0.066553   0.288580   0.327914   0.002184   0.003058   0.003963
    13  C    5.355162   0.241641   0.005153   0.003503  -0.003709   0.344759
    14  C    0.241641   5.293454  -0.042596  -0.000035  -0.000885  -0.060344
    15  H    0.005153  -0.042596   0.485171  -0.000108  -0.000152  -0.000161
    16  H    0.003503  -0.000035  -0.000108   0.517916  -0.024199   0.000081
    17  H   -0.003709  -0.000885  -0.000152  -0.024199   0.541172   0.009660
    18  H    0.344759  -0.060344  -0.000161   0.000081   0.009660   0.553123
    19  H    0.319345  -0.030060  -0.000082  -0.000065   0.000067  -0.016219
    20  H   -0.029545   0.362485  -0.003911   0.000003   0.000032  -0.000311
    21  H   -0.058315   0.326744  -0.001696   0.000076   0.000255   0.005325
    22  H   -0.000065   0.004667  -0.003890  -0.001591  -0.000516   0.000029
    23  H   -0.000336  -0.005725  -0.001991   0.001382   0.005081   0.000314
    24  O    0.000000   0.000000   0.000000   0.000000   0.000000   0.000000
    25  O    0.000000   0.000000   0.000000   0.000000   0.000000   0.000000
    26  O    0.000000   0.000000   0.000000   0.000000   0.000000   0.000000
    27  N    0.000000   0.000000   0.000000   0.000006   0.000000   0.000000
    28  C    0.001292  -0.000044   0.000000  -0.000063   0.000347   0.000006
    29  C   -0.000060   0.000001   0.000000  -0.000004  -0.000012   0.000000
    30  C    0.000011   0.000000   0.000000  -0.000003   0.000000   0.000000
    31  C    0.000000   0.000000   0.000000   0.000000   0.000000   0.000000
    32  C    0.000000   0.000000   0.000000   0.000000   0.000000   0.000000
    33  C    0.000000   0.000000   0.000000   0.000000   0.000000   0.000000
    34  C   -0.000202  -0.000001   0.000000  -0.000001   0.000001   0.000003
    35  C   -0.043482   0.001598   0.000003  -0.004117   0.001941   0.001777
    36  C   -0.001545   0.000214   0.000000   0.000166  -0.000028   0.000336
    37  C    0.000000   0.000000   0.000000   0.000000   0.000000   0.000000
    38  H    0.000000   0.000000   0.000000   0.000000   0.000000   0.000000
    39  H   -0.000002   0.000000   0.000000   0.000000   0.000000   0.000000
    40  H    0.000000   0.000000   0.000000   0.000000   0.000000   0.000000
    41  F   -0.016334  -0.000080   0.000000   0.000000   0.000000   0.000160
    42  H   -0.000001  -0.000005   0.000000   0.010790   0.000018   0.000001
              19         20         21         22         23         24
     1  C    0.000000   0.000000   0.000000   0.000000   0.000000   0.000000
     2  C    0.000000   0.000000   0.000000   0.000000   0.000001   0.000000
     3  C    0.000000   0.000000   0.000000   0.000000   0.000000   0.000000
     4  H    0.000000   0.000000   0.000000   0.000000   0.000000   0.000000
     5  H    0.000000   0.000000   0.000000   0.000000   0.000000   0.000000
     6  H    0.000000   0.000000   0.000000   0.000000   0.000002   0.000000
     7  H    0.000000   0.000000   0.000000   0.000000   0.000000   0.000000
     8  H    0.000000   0.000000   0.000000   0.000000   0.000000   0.000000
     9  N   -0.024587   0.002680  -0.000152   0.002671  -0.000206   0.000000
    10  C    0.002549  -0.000072  -0.000197  -0.029972  -0.061906   0.000000
    11  C    0.000050   0.004729  -0.005851   0.361817   0.326103   0.000000
    12  N    0.001722  -0.031955  -0.049652  -0.032426  -0.050570   0.000000
    13  C    0.319345  -0.029545  -0.058315  -0.000065  -0.000336   0.000000
    14  C   -0.030060   0.362485   0.326744   0.004667  -0.005725   0.000000
    15  H   -0.000082  -0.003911  -0.001696  -0.003890  -0.001991   0.000000
    16  H   -0.000065   0.000003   0.000076  -0.001591   0.001382   0.000000
    17  H    0.000067   0.000032   0.000255  -0.000516   0.005081   0.000000
    18  H   -0.016219  -0.000311   0.005325   0.000029   0.000314   0.000000
    19  H    0.469342  -0.001626   0.001465   0.000002   0.000056   0.000000
    20  H   -0.001626   0.530176  -0.033639  -0.000058  -0.000185   0.000000
    21  H    0.001465  -0.033639   0.630824  -0.000186   0.012779   0.000000
    22  H    0.000002  -0.000058  -0.000186   0.538911  -0.036010   0.000000
    23  H    0.000056  -0.000185   0.012779  -0.036010   0.642033   0.000000
    24  O    0.000000   0.000000   0.000000   0.000000   0.000000   8.082273
    25  O    0.000000   0.000000   0.000000   0.000000   0.000000  -0.000746
    26  O    0.000000   0.000000   0.000000   0.000000   0.000000  -0.000001
    27  N    0.000000   0.000000   0.000000   0.000000   0.000000  -0.000024
    28  C    0.000061   0.000000  -0.000027  -0.000006  -0.000097   0.000003
    29  C    0.000007   0.000000   0.000000   0.000000  -0.000004   0.003427
    30  C   -0.000042   0.000000   0.000000   0.000000   0.000000  -0.130126
    31  C    0.000000   0.000000   0.000000   0.000000   0.000000   0.003411
    32  C    0.000000   0.000000   0.000000   0.000000   0.000000  -0.111857
    33  C    0.000000   0.000000   0.000000   0.000000   0.000000   0.636767
    34  C    0.000861   0.000000  -0.000001   0.000000   0.000000   0.004862
    35  C   -0.007344  -0.000027   0.000554  -0.000039   0.000714  -0.000006
    36  C   -0.002182  -0.000005  -0.000015   0.000000  -0.000026   0.000760
    37  C    0.000000   0.000000   0.000000   0.000000   0.000000  -0.003867
    38  H    0.000000   0.000000   0.000000   0.000000   0.000000  -0.000003
    39  H    0.000016   0.000000   0.000000   0.000000   0.000000   0.015994
    40  H    0.000000   0.000000   0.000000   0.000000   0.000000   0.000189
    41  F    0.044063  -0.000003   0.000091   0.000000   0.000000   0.000000
    42  H   -0.000001   0.000000   0.000000   0.000006  -0.000016   0.000000
              25         26         27         28         29         30
     1  C    0.000000   0.000003   0.268190  -0.001534  -0.054158   0.001727
     2  C    0.000000   0.000000  -0.042091  -0.002227  -0.003766   0.000281
     3  C    0.000000  -0.000001  -0.031071   0.000448   0.003261  -0.000096
     4  H    0.000000   0.000000   0.001104  -0.000001  -0.000036   0.000000
     5  H    0.000000  -0.000003  -0.002583  -0.000015  -0.000019  -0.000002
     6  H    0.000000   0.000000  -0.001386   0.000713   0.002364  -0.000090
     7  H    0.000000   0.000000   0.001252  -0.000125   0.000028  -0.000002
     8  H    0.000000   0.000000  -0.037748   0.000891   0.001068  -0.000025
     9  N    0.000000   0.000000  -0.000003  -0.053320   0.004816  -0.000370
    10  C    0.000000   0.000000   0.000000  -0.005901   0.000569   0.000001
    11  C    0.000000   0.000000   0.000000   0.000323  -0.000008   0.000000
    12  N    0.000000   0.000000   0.000000   0.000003   0.000000   0.000000
    13  C    0.000000   0.000000   0.000000   0.001292  -0.000060   0.000011
    14  C    0.000000   0.000000   0.000000  -0.000044   0.000001   0.000000
    15  H    0.000000   0.000000   0.000000   0.000000   0.000000   0.000000
    16  H    0.000000   0.000000   0.000006  -0.000063  -0.000004  -0.000003
    17  H    0.000000   0.000000   0.000000   0.000347  -0.000012   0.000000
    18  H    0.000000   0.000000   0.000000   0.000006   0.000000   0.000000
    19  H    0.000000   0.000000   0.000000   0.000061   0.000007  -0.000042
    20  H    0.000000   0.000000   0.000000   0.000000   0.000000   0.000000
    21  H    0.000000   0.000000   0.000000  -0.000027   0.000000   0.000000
    22  H    0.000000   0.000000   0.000000  -0.000006   0.000000   0.000000
    23  H    0.000000   0.000000   0.000000  -0.000097  -0.000004   0.000000
    24  O   -0.000746  -0.000001  -0.000024   0.000003   0.003427  -0.130126
    25  O    8.232907  -0.065491  -0.000001   0.000000  -0.000002   0.000108
    26  O   -0.065491   8.149920   0.000070   0.000000   0.000001  -0.000014
    27  N   -0.000001   0.000070   7.401221  -0.044410   0.186471  -0.030442
    28  C    0.000000   0.000000  -0.044410   5.364798   0.373955  -0.048517
    29  C   -0.000002   0.000001   0.186471   0.373955   5.072292   0.291128
    30  C    0.000108  -0.000014  -0.030442  -0.048517   0.291128   6.098968
    31  C    0.003077   0.004312   0.246433   0.001923  -0.065677  -0.011648
    32  C   -0.090828  -0.110982  -0.014269  -0.000737  -0.022382  -0.170944
    33  C    0.002286   0.001894  -0.035508   0.005704   0.004239  -0.034519
    34  C    0.000000   0.000000   0.005554  -0.046408  -0.067250   0.229973
    35  C    0.000000   0.000000   0.004168   0.296594  -0.006584  -0.035098
    36  C    0.000000   0.000000  -0.000354  -0.005645  -0.045491  -0.034245
    37  C    0.218228   0.517796   0.004212  -0.000003  -0.000544   0.005835
    38  H    0.000193   0.016562  -0.035476  -0.000049   0.003064  -0.000512
    39  H    0.000000   0.000000  -0.000010  -0.000372   0.003300  -0.053037
    40  H    0.237290   0.006419   0.000000   0.000000   0.000000   0.000006
    41  F    0.000000   0.000000   0.000000   0.001910  -0.000180   0.003201
    42  H    0.000000   0.000000  -0.007884   0.381892  -0.045998   0.004814
              31         32         33         34         35         36
     1  C   -0.064678   0.002294   0.000024  -0.000087   0.000133   0.000000
     2  C    0.004210  -0.000196   0.000003   0.000001   0.000073  -0.000004
     3  C   -0.009920   0.000568  -0.000012   0.000001  -0.000006   0.000000
     4  H    0.000111  -0.000003   0.000000   0.000000   0.000000   0.000000
     5  H    0.003606  -0.000042  -0.000002   0.000000   0.000000   0.000000
     6  H    0.000130  -0.000002  -0.000001   0.000000   0.000001   0.000000
     7  H   -0.000029   0.000001   0.000000   0.000000   0.000003   0.000000
     8  H    0.000564  -0.000037   0.000006  -0.000001  -0.000020   0.000000
     9  N    0.000000   0.000000   0.000000   0.004305   0.265051  -0.063369
    10  C    0.000000   0.000000   0.000000  -0.000107  -0.057776   0.000447
    11  C    0.000000   0.000000   0.000000   0.000002   0.001908  -0.000043
    12  N    0.000000   0.000000   0.000000   0.000000  -0.000054  -0.000001
    13  C    0.000000   0.000000   0.000000  -0.000202  -0.043482  -0.001545
    14  C    0.000000   0.000000   0.000000  -0.000001   0.001598   0.000214
    15  H    0.000000   0.000000   0.000000   0.000000   0.000003   0.000000
    16  H    0.000000   0.000000   0.000000  -0.000001  -0.004117   0.000166
    17  H    0.000000   0.000000   0.000000   0.000001   0.001941  -0.000028
    18  H    0.000000   0.000000   0.000000   0.000003   0.001777   0.000336
    19  H    0.000000   0.000000   0.000000   0.000861  -0.007344  -0.002182
    20  H    0.000000   0.000000   0.000000   0.000000  -0.000027  -0.000005
    21  H    0.000000   0.000000   0.000000  -0.000001   0.000554  -0.000015
    22  H    0.000000   0.000000   0.000000   0.000000  -0.000039   0.000000
    23  H    0.000000   0.000000   0.000000   0.000000   0.000714  -0.000026
    24  O    0.003411  -0.111857   0.636767   0.004862  -0.000006   0.000760
    25  O    0.003077  -0.090828   0.002286   0.000000   0.000000   0.000000
    26  O    0.004312  -0.110982   0.001894   0.000000   0.000000   0.000000
    27  N    0.246433  -0.014269  -0.035508   0.005554   0.004168  -0.000354
    28  C    0.001923  -0.000737   0.005704  -0.046408   0.296594  -0.005645
    29  C   -0.065677  -0.022382   0.004239  -0.067250  -0.006584  -0.045491
    30  C   -0.011648  -0.170944  -0.034519   0.229973  -0.035098  -0.034245
    31  C    5.117130   0.307089  -0.026696  -0.001336  -0.000067   0.000005
    32  C    0.307089   6.423805  -0.049784   0.015259  -0.000007   0.000037
    33  C   -0.026696  -0.049784   5.191216  -0.075620  -0.000903   0.009912
    34  C   -0.001336   0.015259  -0.075620   5.663872  -0.076364   0.224875
    35  C   -0.000067  -0.000007  -0.000903  -0.076364   5.237356   0.161727
    36  C    0.000005   0.000037   0.009912   0.224875   0.161727   5.224274
    37  C   -0.089399   0.066317  -0.037280   0.000008   0.000000   0.000000
    38  H    0.368229  -0.052951   0.002731   0.000000   0.000000   0.000000
    39  H   -0.000056   0.001242   0.000794   0.368194   0.004756  -0.034090
    40  H   -0.000285   0.012714  -0.000087   0.000000   0.000000   0.000000
    41  F    0.000000   0.000000  -0.000006  -0.053217  -0.057773   0.282922
    42  H    0.000025   0.000004  -0.000008  -0.000432  -0.049616   0.004040
              37         38         39         40         41         42
     1  C   -0.000045  -0.001442   0.000000   0.000000   0.000000   0.004720
     2  C    0.000001  -0.000166   0.000000   0.000000   0.000000   0.000464
     3  C   -0.000005   0.001403   0.000000   0.000000   0.000000  -0.000159
     4  H    0.000000   0.000006   0.000000   0.000000   0.000000   0.000003
     5  H    0.000005   0.001019   0.000000   0.000000   0.000000   0.000007
     6  H    0.000000   0.000024   0.000000   0.000000   0.000000  -0.000675
     7  H    0.000000   0.000001   0.000000   0.000000   0.000000   0.000392
     8  H    0.000001   0.000198   0.000000   0.000000   0.000000   0.000130
     9  N    0.000000   0.000000  -0.000008   0.000000  -0.001929  -0.007930
    10  C    0.000000   0.000000   0.000000   0.000000  -0.000027   0.001464
    11  C    0.000000   0.000000   0.000000   0.000000   0.000000  -0.000230
    12  N    0.000000   0.000000   0.000000   0.000000   0.000000   0.000002
    13  C    0.000000   0.000000  -0.000002   0.000000  -0.016334  -0.000001
    14  C    0.000000   0.000000   0.000000   0.000000  -0.000080  -0.000005
    15  H    0.000000   0.000000   0.000000   0.000000   0.000000   0.000000
    16  H    0.000000   0.000000   0.000000   0.000000   0.000000   0.010790
    17  H    0.000000   0.000000   0.000000   0.000000   0.000000   0.000018
    18  H    0.000000   0.000000   0.000000   0.000000   0.000160   0.000001
    19  H    0.000000   0.000000   0.000016   0.000000   0.044063  -0.000001
    20  H    0.000000   0.000000   0.000000   0.000000  -0.000003   0.000000
    21  H    0.000000   0.000000   0.000000   0.000000   0.000091   0.000000
    22  H    0.000000   0.000000   0.000000   0.000000   0.000000   0.000006
    23  H    0.000000   0.000000   0.000000   0.000000   0.000000  -0.000016
    24  O   -0.003867  -0.000003   0.015994   0.000189   0.000000   0.000000
    25  O    0.218228   0.000193   0.000000   0.237290   0.000000   0.000000
    26  O    0.517796   0.016562   0.000000   0.006419   0.000000   0.000000
    27  N    0.004212  -0.035476  -0.000010   0.000000   0.000000  -0.007884
    28  C   -0.000003  -0.000049  -0.000372   0.000000   0.001910   0.381892
    29  C   -0.000544   0.003064   0.003300   0.000000  -0.000180  -0.045998
    30  C    0.005835  -0.000512  -0.053037   0.000006   0.003201   0.004814
    31  C   -0.089399   0.368229  -0.000056  -0.000285   0.000000   0.000025
    32  C    0.066317  -0.052951   0.001242   0.012714   0.000000   0.000004
    33  C   -0.037280   0.002731   0.000794  -0.000087  -0.000006  -0.000008
    34  C    0.000008   0.000000   0.368194   0.000000  -0.053217  -0.000432
    35  C    0.000000   0.000000   0.004756   0.000000  -0.057773  -0.049616
    36  C    0.000000   0.000000  -0.034090   0.000000   0.282922   0.004040
    37  C    4.699107   0.001195   0.000004  -0.031839   0.000000   0.000000
    38  H    0.001195   0.438605   0.000000  -0.000014   0.000000   0.000004
    39  H    0.000004   0.000000   0.454654   0.000000  -0.001898   0.000001
    40  H   -0.031839  -0.000014   0.000000   0.417412   0.000000   0.000000
    41  F    0.000000   0.000000  -0.001898   0.000000   9.086158   0.000000
    42  H    0.000000   0.000004   0.000001   0.000000   0.000000   0.495752
 Mulliken charges:
               1
     1  C   -0.054282
     2  C   -0.381864
     3  C   -0.395752
     4  H    0.221238
     5  H    0.232386
     6  H    0.237147
     7  H    0.210017
     8  H    0.229167
     9  N   -0.733028
    10  C   -0.187169
    11  C   -0.205108
    12  N   -0.568892
    13  C   -0.222899
    14  C   -0.212928
    15  H    0.275696
    16  H    0.208156
    17  H    0.217009
    18  H    0.210534
    19  H    0.242602
    20  H    0.201232
    21  H    0.171622
    22  H    0.196657
    23  H    0.168611
    24  O   -0.501057
    25  O   -0.537022
    26  O   -0.520485
    27  N   -0.835421
    28  C   -0.221362
    29  C    0.362185
    30  C   -0.086320
    31  C    0.209536
    32  C   -0.204309
    33  C    0.404851
    34  C   -0.196742
    35  C    0.360925
    36  C    0.277330
    37  C    0.650274
    38  H    0.257380
    39  H    0.240517
    40  H    0.358195
    41  F   -0.287055
    42  H    0.208428
 Sum of Mulliken charges =   0.00000
 Mulliken charges with hydrogens summed into heavy atoms:
               1
     1  C    0.174885
     2  C    0.065301
     3  C    0.057872
     9  N   -0.733028
    10  C    0.237996
    11  C    0.160159
    12  N   -0.293195
    13  C    0.230238
    14  C    0.159926
    24  O   -0.501057
    25  O   -0.178827
    26  O   -0.520485
    27  N   -0.835421
    28  C   -0.012934
    29  C    0.362185
    30  C   -0.086320
    31  C    0.466916
    32  C   -0.204309
    33  C    0.404851
    34  C    0.043775
    35  C    0.360925
    36  C    0.277330
    37  C    0.650274
    41  F   -0.287055
 Electronic spatial extent (au):  <R**2>=           9718.2251
 Charge=              0.0000 electrons
 Dipole moment (field-independent basis, Debye):
    X=              5.6366    Y=              6.3831    Z=              0.1472  Tot=              8.5169
 Quadrupole moment (field-independent basis, Debye-Ang):
   XX=           -136.9501   YY=           -134.8059   ZZ=           -138.8198
   XY=             -3.5358   XZ=              6.3550   YZ=              0.9149
 Traceless Quadrupole moment (field-independent basis, Debye-Ang):
   XX=             -0.0915   YY=              2.0527   ZZ=             -1.9612
   XY=             -3.5358   XZ=              6.3550   YZ=              0.9149
[...]
    29  C   -0.000064   0.000003   0.000000  -0.000067  -0.000009  -0.000001
    30  C   -0.000006   0.000000   0.000000  -0.000002   0.000000   0.000000
    31  C    0.000000   0.000000   0.000000   0.000000   0.000000   0.000000
    32  C    0.000000   0.000000   0.000000   0.000000   0.000000   0.000000
    33  C    0.000000   0.000000   0.000000   0.000000   0.000000   0.000000
    34  C    0.000271  -0.000059   0.000000  -0.000004   0.000001   0.000010
    35  C   -0.053386   0.001664  -0.000003  -0.003781   0.002390   0.002384
    36  C    0.000486   0.000054   0.000000   0.000101  -0.000124   0.000260
    37  C    0.000000   0.000000   0.000000   0.000000   0.000000   0.000000
    38  H    0.000000   0.000000   0.000000   0.000000   0.000000   0.000000
    39  H   -0.000001   0.000000   0.000000   0.000000   0.000000   0.000000
    40  H    0.000000   0.000000   0.000000   0.000000   0.000000   0.000000
    41  F    0.000492  -0.005316   0.000000   0.000000   0.000000   0.000221
    42  H    0.000005  -0.000002   0.000000   0.003850  -0.000061  -0.000003
              19         20         21         22         23         24
     1  C    0.000000   0.000000   0.000000   0.000000   0.000000   0.000000
     2  C    0.000000   0.000000   0.000000   0.000000   0.000000   0.000000
     3  C    0.000000   0.000000   0.000000   0.000000   0.000000   0.000000
     4  H    0.000000   0.000000   0.000000   0.000000   0.000000   0.000000
     5  H    0.000000   0.000000   0.000000   0.000000   0.000000   0.000000
     6  H    0.000000   0.000000   0.000000   0.000000   0.000000   0.000000
     7  H    0.000000   0.000000   0.000000   0.000000   0.000000   0.000000
     8  H    0.000000   0.000000   0.000000   0.000000   0.000000   0.000000
     9  N   -0.025581   0.002744  -0.000110   0.002835  -0.000495   0.000000
    10  C    0.002726  -0.000103  -0.000160  -0.030509  -0.060566   0.000000
    11  C   -0.000030   0.004120  -0.004837   0.357052   0.328258   0.000000
    12  N    0.002064  -0.030586  -0.042131  -0.030981  -0.046214   0.000000
    13  C    0.352294  -0.030201  -0.057857  -0.000057  -0.000190   0.000000
    14  C   -0.036778   0.356670   0.314463   0.004049  -0.004460   0.000000
    15  H   -0.000093  -0.003685  -0.001240  -0.003858  -0.001335   0.000000
    16  H   -0.000062   0.000004   0.000073  -0.001021   0.001848   0.000000
    17  H    0.000075   0.000036   0.000231  -0.000219   0.005018   0.000000
    18  H   -0.018763  -0.000175   0.005414   0.000026   0.000234   0.000000
    19  H    0.495750  -0.001035   0.000074   0.000003   0.000063   0.000000
    20  H   -0.001035   0.536183  -0.030188  -0.000042  -0.000137   0.000000
    21  H    0.000074  -0.030188   0.610520  -0.000115   0.010051   0.000000
    22  H    0.000003  -0.000042  -0.000115   0.541277  -0.033916   0.000000
    23  H    0.000063  -0.000137   0.010051  -0.033916   0.625164   0.000000
    24  O    0.000000   0.000000   0.000000   0.000000   0.000000   8.077674
    25  O    0.000000   0.000000   0.000000   0.000000   0.000000  -0.000888
    26  O    0.000000   0.000000   0.000000   0.000000   0.000000  -0.000001
    27  N    0.000000   0.000000   0.000000   0.000000   0.000000  -0.000025
    28  C    0.000130   0.000001   0.000002  -0.000014   0.000000   0.000003
    29  C    0.000006   0.000000   0.000000   0.000000  -0.000007   0.003335
    30  C   -0.000017   0.000000  -0.000003   0.000000   0.000000  -0.126226
    31  C    0.000000   0.000000   0.000000   0.000000   0.000000   0.003349
    32  C    0.000000   0.000000   0.000000   0.000000   0.000000  -0.113077
    33  C    0.000000   0.000000   0.000000   0.000000   0.000000   0.637591
    34  C    0.000066   0.000001   0.000100   0.000000   0.000000   0.003869
    35  C   -0.005521  -0.000015   0.000162  -0.000019   0.002187  -0.000006
    36  C   -0.001425   0.000000  -0.000154  -0.000004  -0.000211   0.000674
    37  C    0.000000   0.000000   0.000000   0.000000   0.000000  -0.004035
    38  H    0.000000   0.000000   0.000000   0.000000   0.000000  -0.000002
    39  H    0.000007   0.000000   0.000001   0.000000   0.000000   0.017009
    40  H    0.000000   0.000000   0.000000   0.000000   0.000000   0.000211
    41  F    0.016038   0.000014   0.013012   0.000000  -0.000013   0.000000
    42  H   -0.000001   0.000000   0.000000   0.000002  -0.000004   0.000000
              25         26         27         28         29         30
     1  C    0.000000   0.000004   0.267567  -0.002528  -0.055718   0.001612
     2  C    0.000000   0.000000  -0.040028  -0.001706  -0.003326   0.000225
     3  C    0.000000  -0.000001  -0.029473   0.000398   0.003214  -0.000085
     4  H    0.000000   0.000000   0.001074   0.000000  -0.000037   0.000000
     5  H    0.000000  -0.000006  -0.002457  -0.000018  -0.000014  -0.000001
     6  H    0.000000   0.000000  -0.000977   0.000452   0.001842  -0.000058
     7  H    0.000000   0.000000   0.001193  -0.000127   0.000015  -0.000001
     8  H    0.000000   0.000000  -0.036851   0.000748   0.001067   0.000012
     9  N    0.000000   0.000000  -0.000004  -0.063662   0.004988  -0.000326
    10  C    0.000000   0.000000   0.000001  -0.005284   0.000357  -0.000001
    11  C    0.000000   0.000000   0.000000   0.000283   0.000002  -0.000001
    12  N    0.000000   0.000000   0.000000  -0.000001   0.000000   0.000000
    13  C    0.000000   0.000000   0.000000   0.001288  -0.000064  -0.000006
    14  C    0.000000   0.000000   0.000000  -0.000099   0.000003   0.000000
    15  H    0.000000   0.000000   0.000000   0.000000   0.000000   0.000000
    16  H    0.000000   0.000000   0.000000   0.002724  -0.000067  -0.000002
    17  H    0.000000   0.000000   0.000000   0.000145  -0.000009   0.000000
    18  H    0.000000   0.000000   0.000000   0.000056  -0.000001   0.000000
    19  H    0.000000   0.000000   0.000000   0.000130   0.000006  -0.000017
    20  H    0.000000   0.000000   0.000000   0.000001   0.000000   0.000000
    21  H    0.000000   0.000000   0.000000   0.000002   0.000000  -0.000003
    22  H    0.000000   0.000000   0.000000  -0.000014   0.000000   0.000000
    23  H    0.000000   0.000000   0.000000   0.000000  -0.000007   0.000000
    24  O   -0.000888  -0.000001  -0.000025   0.000003   0.003335  -0.126226
    25  O    8.230357  -0.061865  -0.000001   0.000000  -0.000002   0.000121
    26  O   -0.061865   8.147159   0.000098   0.000000   0.000001  -0.000017
    27  N   -0.000001   0.000098   7.412981  -0.046153   0.181953  -0.031039
    28  C    0.000000   0.000000  -0.046153   5.376452   0.356125  -0.045601
    29  C   -0.000002   0.000001   0.181953   0.356125   5.100675   0.290798
    30  C    0.000121  -0.000017  -0.031039  -0.045601   0.290798   6.062245
    31  C    0.003314   0.003009   0.242574   0.002086  -0.068166  -0.013859
    32  C   -0.092697  -0.114535  -0.014437  -0.000813  -0.024399  -0.169643
    33  C    0.002152   0.001943  -0.035376   0.005894   0.002913  -0.026113
    34  C    0.000000   0.000000   0.005493  -0.043881  -0.066358   0.242592
    35  C    0.000000   0.000000   0.004479   0.291586  -0.005891  -0.039142
    36  C    0.000000   0.000000  -0.000342  -0.018130  -0.042910  -0.024973
    37  C    0.222658   0.517641   0.004690  -0.000003  -0.000570   0.005920
    38  H    0.000284   0.022668  -0.033197  -0.000050   0.003044  -0.000537
    39  H    0.000000   0.000000  -0.000011  -0.000441   0.003596  -0.057933
    40  H    0.236700   0.004528   0.000000   0.000000   0.000000   0.000005
    41  F    0.000000   0.000000   0.000000   0.002206  -0.000197   0.002805
    42  H    0.000000   0.000000  -0.007886   0.390373  -0.047140   0.004879
              31         32         33         34         35         36
     1  C   -0.059781   0.002310   0.000013  -0.000087   0.000140  -0.000001
     2  C    0.003612  -0.000185   0.000002   0.000001   0.000076  -0.000004
     3  C   -0.009123   0.000520  -0.000009   0.000001  -0.000007   0.000000
     4  H    0.000103  -0.000002   0.000000   0.000000   0.000000   0.000000
     5  H    0.003466  -0.000022  -0.000002   0.000000   0.000000   0.000000
     6  H    0.000152  -0.000004  -0.000001   0.000000  -0.000003   0.000001
     7  H   -0.000024   0.000001   0.000000   0.000000   0.000002   0.000000
     8  H    0.000592  -0.000016   0.000005  -0.000001  -0.000029  -0.000001
     9  N    0.000000   0.000000   0.000000   0.004258   0.287942  -0.072165
    10  C    0.000000   0.000000   0.000000  -0.000102  -0.066953   0.001175
    11  C    0.000000   0.000000   0.000000   0.000002   0.001497   0.000211
    12  N    0.000000   0.000000   0.000000   0.000000  -0.000095   0.000033
    13  C    0.000000   0.000000   0.000000   0.000271  -0.053386   0.000486
    14  C    0.000000   0.000000   0.000000  -0.000059   0.001664   0.000054
    15  H    0.000000   0.000000   0.000000   0.000000  -0.000003   0.000000
    16  H    0.000000   0.000000   0.000000  -0.000004  -0.003781   0.000101
    17  H    0.000000   0.000000   0.000000   0.000001   0.002390  -0.000124
    18  H    0.000000   0.000000   0.000000   0.000010   0.002384   0.000260
    19  H    0.000000   0.000000   0.000000   0.000066  -0.005521  -0.001425
    20  H    0.000000   0.000000   0.000000   0.000001  -0.000015   0.000000
    21  H    0.000000   0.000000   0.000000   0.000100   0.000162  -0.000154
    22  H    0.000000   0.000000   0.000000   0.000000  -0.000019  -0.000004
    23  H    0.000000   0.000000   0.000000   0.000000   0.002187  -0.000211
    24  O    0.003349  -0.113077   0.637591   0.003869  -0.000006   0.000674
    25  O    0.003314  -0.092697   0.002152   0.000000   0.000000   0.000000
    26  O    0.003009  -0.114535   0.001943   0.000000   0.000000   0.000000
    27  N    0.242574  -0.014437  -0.035376   0.005493   0.004479  -0.000342
    28  C    0.002086  -0.000813   0.005894  -0.043881   0.291586  -0.018130
    29  C   -0.068166  -0.024399   0.002913  -0.066358  -0.005891  -0.042910
    30  C   -0.013859  -0.169643  -0.026113   0.242592  -0.039142  -0.024973
    31  C    5.128661   0.304806  -0.023358  -0.001280  -0.000075   0.000011
    32  C    0.304806   6.461218  -0.063341   0.015512  -0.000010   0.000011
    33  C   -0.023358  -0.063341   5.195541  -0.075913  -0.000976   0.009381
    34  C   -0.001280   0.015512  -0.075913   5.686389  -0.079333   0.194227
    35  C   -0.000075  -0.000010  -0.000976  -0.079333   5.293051   0.144238
    36  C    0.000011   0.000011   0.009381   0.194227   0.144238   5.269216
    37  C   -0.097560   0.063939  -0.037407  -0.000001   0.000000   0.000000
    38  H    0.364082  -0.059800   0.002888   0.000000   0.000000   0.000000
    39  H   -0.000062   0.001449   0.000980   0.369941   0.004844  -0.034320
    40  H   -0.000294   0.011892  -0.000058   0.000000   0.000000   0.000000
    41  F    0.000000   0.000000  -0.000004  -0.056268  -0.060038   0.294146
    42  H    0.000022   0.000004  -0.000006  -0.000514  -0.047585   0.004374
              37         38         39         40         41         42
     1  C   -0.000044  -0.001090   0.000000   0.000000   0.000000   0.004661
     2  C    0.000001  -0.000197   0.000000   0.000000   0.000000   0.000309
     3  C   -0.000007   0.001869   0.000000   0.000000   0.000000  -0.000097
     4  H    0.000000  -0.000005   0.000000   0.000000   0.000000   0.000003
     5  H    0.000003   0.001312   0.000000   0.000000   0.000000   0.000006
     6  H    0.000000   0.000020   0.000000   0.000000   0.000000  -0.000514
     7  H    0.000000   0.000001   0.000000   0.000000   0.000000   0.000528
     8  H    0.000001   0.000090   0.000000   0.000000   0.000000   0.000204
     9  N    0.000000   0.000000  -0.000010   0.000000  -0.003181  -0.007290
    10  C    0.000000   0.000000   0.000000   0.000000  -0.000042   0.001575
    11  C    0.000000   0.000000   0.000000   0.000000  -0.000002  -0.000052
    12  N    0.000000   0.000000   0.000000   0.000000   0.000005   0.000001
    13  C    0.000000   0.000000  -0.000001   0.000000   0.000492   0.000005
    14  C    0.000000   0.000000   0.000000   0.000000  -0.005316  -0.000002
    15  H    0.000000   0.000000   0.000000   0.000000   0.000000   0.000000
    16  H    0.000000   0.000000   0.000000   0.000000   0.000000   0.003850
    17  H    0.000000   0.000000   0.000000   0.000000   0.000000  -0.000061
    18  H    0.000000   0.000000   0.000000   0.000000   0.000221  -0.000003
    19  H    0.000000   0.000000   0.000007   0.000000   0.016038  -0.000001
    20  H    0.000000   0.000000   0.000000   0.000000   0.000014   0.000000
    21  H    0.000000   0.000000   0.000001   0.000000   0.013012   0.000000
    22  H    0.000000   0.000000   0.000000   0.000000   0.000000   0.000002
    23  H    0.000000   0.000000   0.000000   0.000000  -0.000013  -0.000004
    24  O   -0.004035  -0.000002   0.017009   0.000211   0.000000   0.000000
    25  O    0.222658   0.000284   0.000000   0.236700   0.000000   0.000000
    26  O    0.517641   0.022668   0.000000   0.004528   0.000000   0.000000
    27  N    0.004690  -0.033197  -0.000011   0.000000   0.000000  -0.007886
    28  C   -0.000003  -0.000050  -0.000441   0.000000   0.002206   0.390373
    29  C   -0.000570   0.003044   0.003596   0.000000  -0.000197  -0.047140
    30  C    0.005920  -0.000537  -0.057933   0.000005   0.002805   0.004879
    31  C   -0.097560   0.364082  -0.000062  -0.000294   0.000000   0.000022
    32  C    0.063939  -0.059800   0.001449   0.011892   0.000000   0.000004
    33  C   -0.037407   0.002888   0.000980  -0.000058  -0.000004  -0.000006
    34  C   -0.000001   0.000000   0.369941   0.000000  -0.056268  -0.000514
    35  C    0.000000   0.000000   0.004844   0.000000  -0.060038  -0.047585
    36  C    0.000000   0.000000  -0.034320   0.000000   0.294146   0.004374
    37  C    4.691029   0.000659   0.000005  -0.028786   0.000000   0.000000
    38  H    0.000659   0.436672   0.000000  -0.000016   0.000000   0.000003
    39  H    0.000005   0.000000   0.457584   0.000000  -0.001850   0.000001
    40  H   -0.028786  -0.000016   0.000000   0.417504   0.000000   0.000000
    41  F    0.000000   0.000000  -0.001850   0.000000   9.088228   0.000000
    42  H    0.000000   0.000003   0.000001   0.000000   0.000000   0.494508
 Mulliken charges:
               1
     1  C   -0.053343
     2  C   -0.383214
     3  C   -0.400927
     4  H    0.223788
     5  H    0.234163
     6  H    0.235061
     7  H    0.213192
     8  H    0.233547
     9  N   -0.688939
    10  C   -0.202871
    11  C   -0.213604
    12  N   -0.566628
    13  C   -0.199238
    14  C   -0.229943
    15  H    0.275365
    16  H    0.201440
    17  H    0.213996
    18  H    0.211937
    19  H    0.220010
    20  H    0.196397
    21  H    0.182693
    22  H    0.195513
    23  H    0.174726
    24  O   -0.499456
    25  O   -0.540132
    26  O   -0.520626
    27  N   -0.843844
    28  C   -0.202442
    29  C    0.360941
    30  C   -0.075632
    31  C    0.213745
    32  C   -0.208680
    33  C    0.403264
    34  C   -0.198933
    35  C    0.326225
    36  C    0.276166
    37  C    0.661868
    38  H    0.261301
    39  H    0.239208
    40  H    0.358314
    41  F   -0.290256
    42  H    0.205848
 Sum of Mulliken charges =   0.00000
 Mulliken charges with hydrogens summed into heavy atoms:
               1
     1  C    0.180204
     2  C    0.065039
     3  C    0.057023
     9  N   -0.688939
    10  C    0.212566
    11  C    0.156635
    12  N   -0.291264
    13  C    0.232710
    14  C    0.149146
    24  O   -0.499456
    25  O   -0.181818
    26  O   -0.520626
    27  N   -0.843844
    28  C    0.003406
    29  C    0.360941
    30  C   -0.075632
    31  C    0.475046
    32  C   -0.208680
    33  C    0.403264
    34  C    0.040275
    35  C    0.326225
    36  C    0.276166
    37  C    0.661868
    41  F   -0.290256
 Electronic spatial extent (au):  <R**2>=           9541.3169
 Charge=              0.0000 electrons
 Dipole moment (field-independent basis, Debye):
    X=              4.3891    Y=              5.9389    Z=              0.2355  Tot=              7.3885
 Quadrupole moment (field-independent basis, Debye-Ang):
   XX=           -137.7199   YY=           -134.9092   ZZ=           -136.8036
   XY=             -6.1668   XZ=              4.9146   YZ=              0.4652
 Traceless Quadrupole moment (field-independent basis, Debye-Ang):
   XX=             -1.2423   YY=              1.5684   ZZ=             -0.3260
   XY=             -6.1668   XZ=              4.9146   YZ=              0.4652
 Octapole moment (field-independent basis, Debye-Ang**2):
  XXX=             46.9433  YYY=             48.1277  ZZZ=              8.6458  XYY=              8.9411
  XXY=            -53.7014  XXZ=             42.8898  XZZ=              7.3421  YZZ=             -6.4249
  YYZ=            -12.0194  XYZ=              7.1778
 Hexadecapole moment (field-independent basis, Debye-Ang**3):
 XXXX=          -8698.3610 YYYY=          -2637.3540 ZZZZ=           -368.9976 XXXY=            278.7383
 XXXZ=            125.5389 YYYX=           -106.0049 YYYZ=            -37.6167 ZZZX=              6.5689
 ZZZY=             -9.3194 XXYY=          -1896.5492 XXZZ=          -1472.0158 YYZZ=           -503.7158
 XXYZ=             13.9575 YYXZ=             16.7293 ZZXY=              5.2676
 N-N= 2.067472007622D+03 E-N=-6.798516224612D+03  KE= 1.132686446801D+03
 1\1\GINC-NODE036\FOpt\RB3LYP\3-21G\C17H18F1N3O3\SUPERCOMPUTO1\06-Jul-2
 020\0\\# opt b3lyp/3-21g geom=connectivity\\Title Card Required\\0,1\C
 ,9.2940893593,10.0247264347,5.8714605316\C,10.4126696354,9.5582485983,
 6.7964574498\C,10.2712313538,11.0341920105,6.4517700263\H,10.983209968
 ,11.4771078427,5.7667699584\H,9.9141808645,11.6877651867,7.2374088458\
 H,10.1177466332,9.25937279,7.7942111293\H,11.228830603,8.9989965745,6.
 3550230311\H,9.3838814567,9.7886914353,4.8161250334\N,7.8413555326,5.1
 317954061,6.3017489616\C,9.2619561758,4.9126630703,6.6569341196\C,9.33
 30609691,4.0199732722,7.9147912371\N,8.6346578478,2.7483152702,7.61900
 77038\C,7.1270742478,3.8557331876,6.0511916193\C,7.20045031,2.96173918
 26,7.3009566681\H,8.7593364809,2.064854808,8.3709885517\H,9.748962785,
 5.8697732583,6.8481203761\H,9.7649893817,4.3969271539,5.8313794362\H,7
 .6415182392,3.347805364,5.2275286504\H,6.0963293544,4.0592097834,5.777
 7633411\H,6.7382959702,1.9911473044,7.093521079\H,6.6334709676,3.47248
 6595,8.0964439356\H,10.3800709079,3.8013534005,8.1511132032\H,8.885915
 4945,4.582719192,8.7549405559\O,4.0001651057,10.0694048926,7.713172491
 3\O,4.2184260498,12.7814647141,7.6109250418\O,6.2028716791,13.67702193
 91,6.9290863409\N,7.9252782277,10.0128693769,6.372240426\C,7.863774034
 3,7.5618133287,6.3322195479\C,7.2495218029,8.7925071401,6.5858205573\C
 ,5.9172870468,8.8367097681,7.0376968043\C,7.2636724231,11.1846605965,6
 .5777381294\C,5.9753526644,11.2907412366,7.0215012829\C,5.1770701746,1
 0.0961106257,7.3021154719\C,5.2522710501,7.6257321134,7.254919181\C,7.
 2054408341,6.3390727054,6.5514859769\C,5.873716506,6.4253789174,7.0360
 869501\C,5.5129651826,12.6776954584,7.1701388159\H,7.8095199395,12.096
 693407,6.373343114\H,4.2374255721,7.6679437278,7.6283887759\H,4.007411
 6126,13.7541344109,7.6757544842\F,5.1894755816,5.2555817218,7.32439484
 13\H,8.8660799744,7.5444467986,5.9347863224\\Version=ES64L-G09RevD.01\
 State=1-A\HF=-1142.0812702\RMSD=4.774e-09\RMSF=1.247e-05\Dipole=2.6339
 244,-1.193799,-0.2952969\Quadrupole=-0.485926,0.7644145,-0.2784885,4.0
 069834,1.0054742,-4.255757\PG=C01 [X(C17H18F1N3O3)]\\@


 TRUTH, IN SCIENCE, CAN BE DEFINED AS THE WORKING HYPOTHESIS 
 BEST FITTED TO OPEN THE WAY TO THE NEXT BETTER ONE.

                              -- KONRAD LORENZ
 Job cpu time:       0 days  2 hours 54 minutes 56.3 seconds.
 File lengths (MBytes):  RWF=     42 Int=      0 D2E=      0 Chk=      7 Scr=      1
 Normal termination of Gaussian 09 at Mon Jul  6 11:03:51 2020.
