 Entering Gaussian System, Link 0=g09
 Input=levofloxacina.gjf
 Output=levofloxacina.log
 Initial command:
 /usr/local/cluster_programs/g09/l1.exe "/tmp/scratch/63947.prometeo/Gau-29974.inp" -scrdir="/tmp/scratch/63947.prometeo/"
 Entering Link 1 = /usr/local/cluster_programs/g09/l1.exe PID=     29975.
  
 Copyright (c) 1988,1990,1992,1993,1995,1998,2003,2009,2013,
            Gaussian, Inc.  All Rights Reserved.
  
 This is part of the Gaussian(R) 09 program.  It is based on
 the Gaussian(R) 03 system (copyright 2003, Gaussian, Inc.),
 the Gaussian(R) 98 system (copyright 1998, Gaussian, Inc.),
 the Gaussian(R) 94 system (copyright 1995, Gaussian, Inc.),
 the Gaussian 92(TM) system (copyright 1992, Gaussian, Inc.),
 the Gaussian 90(TM) system (copyright 1990, Gaussian, Inc.),
 the Gaussian 88(TM) system (copyright 1988, Gaussian, Inc.),
 the Gaussian 86(TM) system (copyright 1986, Carnegie Mellon
 University), and the Gaussian 82(TM) system (copyright 1983,
 Carnegie Mellon University). Gaussian is a federally registered
 trademark of Gaussian, Inc.
  
 This software contains proprietary and confidential information,
 including trade secrets, belonging to Gaussian, Inc.
  
 This software is provided under written license and may be
 used, copied, transmitted, or stored only in accord with that
 written license.
  
 The following legend is applicable only to US Government
 contracts under FAR:
  
                    RESTRICTED RIGHTS LEGEND
  
 Use, reproduction and disclosure by the US Government is
 subject to restrictions as set forth in subparagraphs (a)
 and (c) of the Commercial Computer Software - Restricted
 Rights clause in FAR 52.227-19.
  
 Gaussian, Inc.
 340 Quinnipiac St., Bldg. 40, Wallingford CT 06492
  
  
 ---------------------------------------------------------------
 Warning -- This program may not be used in any manner that
 competes with the business of Gaussian, Inc. or will provide
 assistance to any competitor of Gaussian, Inc.  The licensee
 of this program is prohibited from giving any competitor of
 Gaussian, Inc. access to this program.  By using this program,
 the user acknowledges that Gaussian, Inc. is engaged in the
 business of creating and licensing software in the field of
 computational chemistry and represents and warrants to the
 licensee that it is not a competitor of Gaussian, Inc. and that
 it will not use this program in any manner prohibited above.
 ---------------------------------------------------------------
  

 Cite this work as:
 Gaussian 09, Revision D.01,
 M. J. Frisch, G. W. Trucks, H. B. Schlegel, G. E. Scuseria, 
 M. A. Robb, J. R. Cheeseman, G. Scalmani, V. Barone, B. Mennucci, 
 G. A. Petersson, H. Nakatsuji, M. Caricato, X. Li, H. P. Hratchian, 
 A. F. Izmaylov, J. Bloino, G. Zheng, J. L. Sonnenberg, M. Hada, 
 M. Ehara, K. Toyota, R. Fukuda, J. Hasegawa, M. Ishida, T. Nakajima, 
 Y. Honda, O. Kitao, H. Nakai, T. Vreven, J. A. Montgomery, Jr., 
 J. E. Peralta, F. Ogliaro, M. Bearpark, J. J. Heyd, E. Brothers, 
 K. N. Kudin, V. N. Staroverov, T. Keith, R. Kobayashi, J. Normand, 
 K. Raghavachari, A. Rendell, J. C. Burant, S. S. Iyengar, J. Tomasi, 
 M. Cossi, N. Rega, J. M. Millam, M. Klene, J. E. Knox, J. B. Cross, 
 V. Bakken, C. Adamo, J. Jaramillo, R. Gomperts, R. E. Stratmann, 
 O. Yazyev, A. J. Austin, R. Cammi, C. Pomelli, J. W. Ochterski, 
 R. L. Martin, K. Morokuma, V. G. Zakrzewski, G. A. Voth, 
 P. Salvador, J. J. Dannenberg, S. Dapprich, A. D. Daniels, 
 O. Farkas, J. B. Foresman, J. V. Ortiz, J. Cioslowski, 
 and D. J. Fox, Gaussian, Inc., Wallingford CT, 2013.
 
 ******************************************
 Gaussian 09:  ES64L-G09RevD.01 24-Apr-2013
                 6-Jul-2020 
 ******************************************
 %nprocshared=20
 Will use up to   20 processors via shared memory.
 -----------------------------------
 # opt b3lyp/3-21g geom=connectivity
 -----------------------------------
 1/14=-1,18=20,19=15,26=3,38=1,57=2/1,3;
 2/9=110,12=2,17=6,18=5,40=1/2;
 3/5=5,11=2,16=1,25=1,30=1,71=1,74=-5/1,2,3;
 4//1;
 5/5=2,38=5/2;
 6/7=2,8=2,9=2,10=2,28=1/1;
 7//1,2,3,16;
 1/14=-1,18=20,19=15,26=3/3(2);
 2/9=110/2;
 99//99;
 2/9=110/2;
 3/5=5,11=2,16=1,25=1,30=1,71=1,74=-5/1,2,3;
 4/5=5,16=3,69=1/1;
 5/5=2,38=5/2;
 7//1,2,3,16;
 1/14=-1,18=20,19=15,26=3/3(-5);
 2/9=110/2;
 6/7=2,8=2,9=2,10=2,19=2,28=1/1;
 99/9=1/99;
 -------------------
 Title Card Required
 -------------------
 Symbolic Z-matrix:
 Charge =  0 Multiplicity = 1
 C                     12.2944   4.57327   4.17036 
 H                     12.2701   4.17523   5.20775 
 H                     13.3223   4.45647   3.76014 
 H                     11.5916   3.96066   3.56588 
 N                     11.3164   8.54506   4.06384 
 C                     11.2503   7.90612   2.7453 
 C                     11.9158   6.52105   2.78601 
 C                     12.4909   8.29691   4.90457 
 C                     12.7296   6.77999   5.06422 
 N                     11.8719   5.98134   4.15851 
 C                     9.55219   7.62497   7.76354 
 H                     10.1286   8.38155   8.34039 
 H                     9.83157   6.62385   8.1552 
 O                     9.91994   7.70798   6.38246 
 O                     6.43387   12.5119   5.44318 
 O                     4.49049   12.9244   7.17872 
 O                     4.30322   11.2832   8.72151 
 N                     7.6701    9.14714   7.32769 
 C                     9.52093   8.88564   5.72583 
 C                     8.40384   9.61326   6.18042 
 C                     7.98419   10.7643   5.50036 
 C                     8.0481    7.87692   7.96092 
 C                     6.52829   9.87675   7.81841 
 C                     6.09647   11.005    7.22109 
 C                     6.81172   11.5028   6.01463 
 C                     8.66994   11.1758   4.34674 
 C                     10.1943   9.29493   4.56049 
 C                     7.21376   6.73318   7.37659 
 C                     9.76086   10.4411   3.87541 
 C                     4.91361   11.7294   7.76258 
 H                     7.85516   7.93163   9.05563 
 H                     6.01095   9.49569   8.69144 
 H                     8.35815   12.0604   3.80563 
 H                     7.4885    5.77131   7.85914 
 H                     6.13472   6.92041   7.56058 
 H                     7.37836   6.64903   6.28119 
 H                     3.67931   13.3205   7.64073 
 F                     10.4098   10.8577   2.75916 
 H                     12.5027   6.49424   6.11495 
 H                     13.8079   6.5648    4.88309 
 H                     13.3767   8.7596    4.41766 
 H                     12.3784   8.77607   5.90234 
 H                     11.3741   5.8482    2.08422 
 H                     12.9703   6.60137   2.43471 
 H                     10.1886   7.79459   2.43185 
 H                     11.7674   8.54463   1.99762 
 

 GradGradGradGradGradGradGradGradGradGradGradGradGradGradGradGradGradGrad
 Berny optimization.
 Initialization pass.
                           ----------------------------
                           !    Initial Parameters    !
                           ! (Angstroms and Degrees)  !
 --------------------------                            --------------------------
 ! Name  Definition              Value          Derivative Info.                !
 --------------------------------------------------------------------------------
 ! R1    R(1,2)                  1.1114         estimate D2E/DX2                !
 ! R2    R(1,3)                  1.1129         estimate D2E/DX2                !
 ! R3    R(1,4)                  1.1111         estimate D2E/DX2                !
 ! R4    R(1,10)                 1.4701         estimate D2E/DX2                !
 ! R5    R(5,6)                  1.4667         estimate D2E/DX2                !
 ! R6    R(5,8)                  1.4656         estimate D2E/DX2                !
 ! R7    R(5,27)                 1.4381         estimate D2E/DX2                !
 ! R8    R(6,7)                  1.5372         estimate D2E/DX2                !
 ! R9    R(6,45)                 1.1126         estimate D2E/DX2                !
 ! R10   R(6,46)                 1.1109         estimate D2E/DX2                !
 ! R11   R(7,10)                 1.4755         estimate D2E/DX2                !
 ! R12   R(7,43)                 1.113          estimate D2E/DX2                !
 ! R13   R(7,44)                 1.1144         estimate D2E/DX2                !
 ! R14   R(8,9)                  1.5439         estimate D2E/DX2                !
 ! R15   R(8,41)                 1.1117         estimate D2E/DX2                !
 ! R16   R(8,42)                 1.1126         estimate D2E/DX2                !
 ! R17   R(9,10)                 1.4811         estimate D2E/DX2                !
 ! R18   R(9,39)                 1.1123         estimate D2E/DX2                !
 ! R19   R(9,40)                 1.1144         estimate D2E/DX2                !
 ! R20   R(11,12)                1.1124         estimate D2E/DX2                !
 ! R21   R(11,13)                1.1107         estimate D2E/DX2                !
 ! R22   R(11,14)                1.4316         estimate D2E/DX2                !
 ! R23   R(11,22)                1.5378         estimate D2E/DX2                !
 ! R24   R(14,19)                1.4061         estimate D2E/DX2                !
 ! R25   R(15,25)                1.2197         estimate D2E/DX2                !
 ! R26   R(16,30)                1.3957         estimate D2E/DX2                !
 ! R27   R(16,37)                1.0141         estimate D2E/DX2                !
 ! R28   R(17,30)                1.2212         estimate D2E/DX2                !
 ! R29   R(18,20)                1.4394         estimate D2E/DX2                !
 ! R30   R(18,22)                1.4688         estimate D2E/DX2                !
 ! R31   R(18,23)                1.4411         estimate D2E/DX2                !
 ! R32   R(19,20)                1.4085         estimate D2E/DX2                !
 ! R33   R(19,27)                1.4068         estimate D2E/DX2                !
 ! R34   R(20,21)                1.4012         estimate D2E/DX2                !
 ! R35   R(21,25)                1.478          estimate D2E/DX2                !
 ! R36   R(21,26)                1.4037         estimate D2E/DX2                !
 ! R37   R(22,28)                1.5316         estimate D2E/DX2                !
 ! R38   R(22,31)                1.1129         estimate D2E/DX2                !
 ! R39   R(23,24)                1.3477         estimate D2E/DX2                !
 ! R40   R(23,32)                1.084          estimate D2E/DX2                !
 ! R41   R(24,25)                1.4883         estimate D2E/DX2                !
 ! R42   R(24,30)                1.489          estimate D2E/DX2                !
 ! R43   R(26,29)                1.3972         estimate D2E/DX2                !
 ! R44   R(26,33)                1.0828         estimate D2E/DX2                !
 ! R45   R(27,29)                1.4039         estimate D2E/DX2                !
 ! R46   R(28,34)                1.1106         estimate D2E/DX2                !
 ! R47   R(28,35)                1.1105         estimate D2E/DX2                !
 ! R48   R(28,36)                1.1109         estimate D2E/DX2                !
 ! R49   R(29,38)                1.3567         estimate D2E/DX2                !
 ! A1    A(2,1,3)              109.0669         estimate D2E/DX2                !
 ! A2    A(2,1,4)              107.248          estimate D2E/DX2                !
 ! A3    A(2,1,10)             110.1368         estimate D2E/DX2                !
 ! A4    A(3,1,4)              109.0148         estimate D2E/DX2                !
 ! A5    A(3,1,10)             111.2842         estimate D2E/DX2                !
 ! A6    A(4,1,10)             109.9927         estimate D2E/DX2                !
 ! A7    A(6,5,8)              118.5595         estimate D2E/DX2                !
 ! A8    A(6,5,27)             120.1632         estimate D2E/DX2                !
 ! A9    A(8,5,27)             121.0301         estimate D2E/DX2                !
 ! A10   A(5,6,7)              110.4387         estimate D2E/DX2                !
 ! A11   A(5,6,45)             109.8735         estimate D2E/DX2                !
 ! A12   A(5,6,46)             109.4929         estimate D2E/DX2                !
 ! A13   A(7,6,45)             109.2847         estimate D2E/DX2                !
 ! A14   A(7,6,46)             109.5233         estimate D2E/DX2                !
 ! A15   A(45,6,46)            108.1908         estimate D2E/DX2                !
 ! A16   A(6,7,10)             109.9589         estimate D2E/DX2                !
 ! A17   A(6,7,43)             108.5006         estimate D2E/DX2                !
 ! A18   A(6,7,44)             109.6564         estimate D2E/DX2                !
 ! A19   A(10,7,43)            110.5447         estimate D2E/DX2                !
 ! A20   A(10,7,44)            110.3507         estimate D2E/DX2                !
 ! A21   A(43,7,44)            107.78           estimate D2E/DX2                !
 ! A22   A(5,8,9)              110.4625         estimate D2E/DX2                !
 ! A23   A(5,8,41)             108.4718         estimate D2E/DX2                !
 ! A24   A(5,8,42)             111.1315         estimate D2E/DX2                !
 ! A25   A(9,8,41)             109.3322         estimate D2E/DX2                !
 ! A26   A(9,8,42)             110.2465         estimate D2E/DX2                !
 ! A27   A(41,8,42)            107.1051         estimate D2E/DX2                !
 ! A28   A(8,9,10)             112.15           estimate D2E/DX2                !
 ! A29   A(8,9,39)             108.5763         estimate D2E/DX2                !
 ! A30   A(8,9,40)             108.8161         estimate D2E/DX2                !
 ! A31   A(10,9,39)            108.7233         estimate D2E/DX2                !
 ! A32   A(10,9,40)            110.9047         estimate D2E/DX2                !
 ! A33   A(39,9,40)            107.5372         estimate D2E/DX2                !
 ! A34   A(1,10,7)             110.4442         estimate D2E/DX2                !
 ! A35   A(1,10,9)             110.1876         estimate D2E/DX2                !
 ! A36   A(7,10,9)             110.7539         estimate D2E/DX2                !
 ! A37   A(12,11,13)           107.4476         estimate D2E/DX2                !
 ! A38   A(12,11,14)           109.1304         estimate D2E/DX2                !
 ! A39   A(12,11,22)           109.1977         estimate D2E/DX2                !
 ! A40   A(13,11,14)           109.1366         estimate D2E/DX2                !
 ! A41   A(13,11,22)           110.3918         estimate D2E/DX2                !
 ! A42   A(14,11,22)           111.4431         estimate D2E/DX2                !
 ! A43   A(11,14,19)           115.2239         estimate D2E/DX2                !
 ! A44   A(30,16,37)           112.7275         estimate D2E/DX2                !
 ! A45   A(20,18,22)           119.5044         estimate D2E/DX2                !
 ! A46   A(20,18,23)           120.7527         estimate D2E/DX2                !
 ! A47   A(22,18,23)           119.6653         estimate D2E/DX2                !
 ! A48   A(14,19,20)           120.4626         estimate D2E/DX2                !
 ! A49   A(14,19,27)           119.6483         estimate D2E/DX2                !
 ! A50   A(20,19,27)           119.7807         estimate D2E/DX2                !
 ! A51   A(18,20,19)           119.6193         estimate D2E/DX2                !
 ! A52   A(18,20,21)           120.0114         estimate D2E/DX2                !
 ! A53   A(19,20,21)           120.3461         estimate D2E/DX2                !
 ! A54   A(20,21,25)           118.6294         estimate D2E/DX2                !
 ! A55   A(20,21,26)           119.5615         estimate D2E/DX2                !
 ! A56   A(25,21,26)           121.8037         estimate D2E/DX2                !
 ! A57   A(11,22,18)           109.7596         estimate D2E/DX2                !
 ! A58   A(11,22,28)           111.1928         estimate D2E/DX2                !
 ! A59   A(11,22,31)           107.6904         estimate D2E/DX2                !
 ! A60   A(18,22,28)           109.9462         estimate D2E/DX2                !
 ! A61   A(18,22,31)           109.6905         estimate D2E/DX2                !
 ! A62   A(28,22,31)           108.5147         estimate D2E/DX2                !
 ! A63   A(18,23,24)           121.7891         estimate D2E/DX2                !
 ! A64   A(18,23,32)           118.3202         estimate D2E/DX2                !
 ! A65   A(24,23,32)           119.8906         estimate D2E/DX2                !
 ! A66   A(23,24,25)           119.0343         estimate D2E/DX2                !
 ! A67   A(23,24,30)           120.043          estimate D2E/DX2                !
 ! A68   A(25,24,30)           120.921          estimate D2E/DX2                !
 ! A69   A(15,25,21)           119.7437         estimate D2E/DX2                !
 ! A70   A(15,25,24)           120.5081         estimate D2E/DX2                !
 ! A71   A(21,25,24)           119.7473         estimate D2E/DX2                !
 ! A72   A(21,26,29)           120.3007         estimate D2E/DX2                !
 ! A73   A(21,26,33)           120.6306         estimate D2E/DX2                !
 ! A74   A(29,26,33)           119.0671         estimate D2E/DX2                !
 ! A75   A(5,27,19)            120.5222         estimate D2E/DX2                !
 ! A76   A(5,27,29)            119.8737         estimate D2E/DX2                !
 ! A77   A(19,27,29)           119.6033         estimate D2E/DX2                !
 ! A78   A(22,28,34)           110.2564         estimate D2E/DX2                !
 ! A79   A(22,28,35)           109.8895         estimate D2E/DX2                !
 ! A80   A(22,28,36)           110.6131         estimate D2E/DX2                !
 ! A81   A(34,28,35)           108.3239         estimate D2E/DX2                !
 ! A82   A(34,28,36)           109.0361         estimate D2E/DX2                !
 ! A83   A(35,28,36)           108.6697         estimate D2E/DX2                !
 ! A84   A(26,29,27)           120.3824         estimate D2E/DX2                !
 ! A85   A(26,29,38)           119.3117         estimate D2E/DX2                !
 ! A86   A(27,29,38)           120.299          estimate D2E/DX2                !
 ! A87   A(16,30,17)           119.3286         estimate D2E/DX2                !
 ! A88   A(16,30,24)           120.3477         estimate D2E/DX2                !
 ! A89   A(17,30,24)           120.3236         estimate D2E/DX2                !
 ! D1    D(2,1,10,7)           179.3827         estimate D2E/DX2                !
 ! D2    D(2,1,10,9)            56.6997         estimate D2E/DX2                !
 ! D3    D(3,1,10,7)            58.3013         estimate D2E/DX2                !
 ! D4    D(3,1,10,9)           -64.3817         estimate D2E/DX2                !
 ! D5    D(4,1,10,7)           -62.6173         estimate D2E/DX2                !
 ! D6    D(4,1,10,9)           174.6997         estimate D2E/DX2                !
 ! D7    D(8,5,6,7)             34.0829         estimate D2E/DX2                !
 ! D8    D(8,5,6,45)           154.7119         estimate D2E/DX2                !
 ! D9    D(8,5,6,46)           -86.597          estimate D2E/DX2                !
 ! D10   D(27,5,6,7)          -140.2656         estimate D2E/DX2                !
 ! D11   D(27,5,6,45)          -19.6367         estimate D2E/DX2                !
 ! D12   D(27,5,6,46)           99.0544         estimate D2E/DX2                !
 ! D13   D(6,5,8,9)            -53.0001         estimate D2E/DX2                !
 ! D14   D(6,5,8,41)            66.8134         estimate D2E/DX2                !
 ! D15   D(6,5,8,42)          -175.6983         estimate D2E/DX2                !
 ! D16   D(27,5,8,9)           121.2974         estimate D2E/DX2                !
 ! D17   D(27,5,8,41)         -118.889          estimate D2E/DX2                !
 ! D18   D(27,5,8,42)           -1.4007         estimate D2E/DX2                !
 ! D19   D(6,5,27,19)          117.2663         estimate D2E/DX2                !
 ! D20   D(6,5,27,29)          -62.4103         estimate D2E/DX2                !
 ! D21   D(8,5,27,19)          -56.9405         estimate D2E/DX2                !
 ! D22   D(8,5,27,29)          123.3829         estimate D2E/DX2                !
 ! D23   D(5,6,7,10)            25.5296         estimate D2E/DX2                !
 ! D24   D(5,6,7,43)           146.5421         estimate D2E/DX2                !
 ! D25   D(5,6,7,44)           -95.9773         estimate D2E/DX2                !
 ! D26   D(45,6,7,10)          -95.4506         estimate D2E/DX2                !
 ! D27   D(45,6,7,43)           25.5619         estimate D2E/DX2                !
 ! D28   D(45,6,7,44)          143.0425         estimate D2E/DX2                !
 ! D29   D(46,6,7,10)          146.1913         estimate D2E/DX2                !
 ! D30   D(46,6,7,43)          -92.7961         estimate D2E/DX2                !
 ! D31   D(46,6,7,44)           24.6845         estimate D2E/DX2                !
 ! D32   D(6,7,10,1)           170.3994         estimate D2E/DX2                !
 ! D33   D(6,7,10,9)           -67.2491         estimate D2E/DX2                !
 ! D34   D(43,7,10,1)           50.6226         estimate D2E/DX2                !
 ! D35   D(43,7,10,9)          172.974          estimate D2E/DX2                !
 ! D36   D(44,7,10,1)          -68.5095         estimate D2E/DX2                !
 ! D37   D(44,7,10,9)           53.842          estimate D2E/DX2                !
 ! D38   D(5,8,9,10)             9.6924         estimate D2E/DX2                !
 ! D39   D(5,8,9,39)          -110.4688         estimate D2E/DX2                !
 ! D40   D(5,8,9,40)           132.7651         estimate D2E/DX2                !
 ! D41   D(41,8,9,10)         -109.6016         estimate D2E/DX2                !
 ! D42   D(41,8,9,39)          130.2373         estimate D2E/DX2                !
 ! D43   D(41,8,9,40)           13.4712         estimate D2E/DX2                !
 ! D44   D(42,8,9,10)          132.9061         estimate D2E/DX2                !
 ! D45   D(42,8,9,39)           12.745          estimate D2E/DX2                !
 ! D46   D(42,8,9,40)         -104.0212         estimate D2E/DX2                !
 ! D47   D(8,9,10,1)           170.0479         estimate D2E/DX2                !
 ! D48   D(8,9,10,7)            47.547          estimate D2E/DX2                !
 ! D49   D(39,9,10,1)          -69.8764         estimate D2E/DX2                !
 ! D50   D(39,9,10,7)          167.6226         estimate D2E/DX2                !
 ! D51   D(40,9,10,1)           48.1604         estimate D2E/DX2                !
 ! D52   D(40,9,10,7)          -74.3405         estimate D2E/DX2                !
 ! D53   D(12,11,14,19)        -68.0061         estimate D2E/DX2                !
 ! D54   D(13,11,14,19)        174.846          estimate D2E/DX2                !
 ! D55   D(22,11,14,19)         52.6692         estimate D2E/DX2                !
 ! D56   D(12,11,22,18)         67.3384         estimate D2E/DX2                !
 ! D57   D(12,11,22,28)       -170.7873         estimate D2E/DX2                !
 ! D58   D(12,11,22,31)        -52.0264         estimate D2E/DX2                !
 ! D59   D(13,11,22,18)       -174.7473         estimate D2E/DX2                !
 ! D60   D(13,11,22,28)        -52.873          estimate D2E/DX2                !
 ! D61   D(13,11,22,31)         65.8879         estimate D2E/DX2                !
 ! D62   D(14,11,22,18)        -53.2975         estimate D2E/DX2                !
 ! D63   D(14,11,22,28)         68.5769         estimate D2E/DX2                !
 ! D64   D(14,11,22,31)       -172.6622         estimate D2E/DX2                !
 ! D65   D(11,14,19,20)        -25.9466         estimate D2E/DX2                !
 ! D66   D(11,14,19,27)        157.8462         estimate D2E/DX2                !
 ! D67   D(37,16,30,17)          0.3248         estimate D2E/DX2                !
 ! D68   D(37,16,30,24)       -179.7345         estimate D2E/DX2                !
 ! D69   D(22,18,20,19)         -3.583          estimate D2E/DX2                !
 ! D70   D(22,18,20,21)        174.6708         estimate D2E/DX2                !
 ! D71   D(23,18,20,19)        179.6295         estimate D2E/DX2                !
 ! D72   D(23,18,20,21)         -2.1167         estimate D2E/DX2                !
 ! D73   D(20,18,22,11)         29.2928         estimate D2E/DX2                !
 ! D74   D(20,18,22,28)        -93.3231         estimate D2E/DX2                !
 ! D75   D(20,18,22,31)        147.4241         estimate D2E/DX2                !
 ! D76   D(23,18,22,11)       -153.8843         estimate D2E/DX2                !
 ! D77   D(23,18,22,28)         83.4998         estimate D2E/DX2                !
 ! D78   D(23,18,22,31)        -35.753          estimate D2E/DX2                !
 ! D79   D(20,18,23,24)          0.7346         estimate D2E/DX2                !
 ! D80   D(20,18,23,32)       -179.3712         estimate D2E/DX2                !
 ! D81   D(22,18,23,24)       -176.0478         estimate D2E/DX2                !
 ! D82   D(22,18,23,32)          3.8464         estimate D2E/DX2                !
 ! D83   D(14,19,20,18)          0.1712         estimate D2E/DX2                !
 ! D84   D(14,19,20,21)       -178.0767         estimate D2E/DX2                !
 ! D85   D(27,19,20,18)        176.3734         estimate D2E/DX2                !
 ! D86   D(27,19,20,21)         -1.8745         estimate D2E/DX2                !
 ! D87   D(14,19,27,5)          -2.2386         estimate D2E/DX2                !
 ! D88   D(14,19,27,29)        177.4388         estimate D2E/DX2                !
 ! D89   D(20,19,27,5)        -178.472          estimate D2E/DX2                !
 ! D90   D(20,19,27,29)          1.2055         estimate D2E/DX2                !
 ! D91   D(18,20,21,25)          2.0825         estimate D2E/DX2                !
 ! D92   D(18,20,21,26)       -177.0885         estimate D2E/DX2                !
 ! D93   D(19,20,21,25)       -179.6765         estimate D2E/DX2                !
 ! D94   D(19,20,21,26)          1.1525         estimate D2E/DX2                !
 ! D95   D(20,21,25,15)        179.5582         estimate D2E/DX2                !
 ! D96   D(20,21,25,24)         -0.7968         estimate D2E/DX2                !
 ! D97   D(26,21,25,15)         -1.2903         estimate D2E/DX2                !
 ! D98   D(26,21,25,24)        178.3547         estimate D2E/DX2                !
 ! D99   D(20,21,26,29)          0.234          estimate D2E/DX2                !
 ! D100  D(20,21,26,33)        179.7652         estimate D2E/DX2                !
 ! D101  D(25,21,26,29)       -178.9097         estimate D2E/DX2                !
 ! D102  D(25,21,26,33)          0.6215         estimate D2E/DX2                !
 ! D103  D(11,22,28,34)         58.7907         estimate D2E/DX2                !
 ! D104  D(11,22,28,35)        178.124          estimate D2E/DX2                !
 ! D105  D(11,22,28,36)        -61.8903         estimate D2E/DX2                !
 ! D106  D(18,22,28,34)       -179.4436         estimate D2E/DX2                !
 ! D107  D(18,22,28,35)        -60.1103         estimate D2E/DX2                !
 ! D108  D(18,22,28,36)         59.8754         estimate D2E/DX2                !
 ! D109  D(31,22,28,34)        -59.4742         estimate D2E/DX2                !
 ! D110  D(31,22,28,35)         59.8591         estimate D2E/DX2                !
 ! D111  D(31,22,28,36)        179.8448         estimate D2E/DX2                !
 ! D112  D(18,23,24,25)          0.5708         estimate D2E/DX2                !
 ! D113  D(18,23,24,30)       -179.8887         estimate D2E/DX2                !
 ! D114  D(32,23,24,25)       -179.3218         estimate D2E/DX2                !
 ! D115  D(32,23,24,30)          0.2187         estimate D2E/DX2                !
 ! D116  D(23,24,25,15)        179.0944         estimate D2E/DX2                !
 ! D117  D(23,24,25,21)         -0.5479         estimate D2E/DX2                !
 ! D118  D(30,24,25,15)         -0.442          estimate D2E/DX2                !
 ! D119  D(30,24,25,21)        179.9157         estimate D2E/DX2                !
 ! D120  D(23,24,30,16)        177.6551         estimate D2E/DX2                !
 ! D121  D(23,24,30,17)         -2.4048         estimate D2E/DX2                !
 ! D122  D(25,24,30,16)         -2.8131         estimate D2E/DX2                !
 ! D123  D(25,24,30,17)        177.1269         estimate D2E/DX2                !
 ! D124  D(21,26,29,27)         -0.8977         estimate D2E/DX2                !
 ! D125  D(21,26,29,38)       -179.9418         estimate D2E/DX2                !
 ! D126  D(33,26,29,27)        179.5638         estimate D2E/DX2                !
 ! D127  D(33,26,29,38)          0.5197         estimate D2E/DX2                !
 ! D128  D(5,27,29,26)         179.8508         estimate D2E/DX2                !
 ! D129  D(5,27,29,38)          -1.1146         estimate D2E/DX2                !
 ! D130  D(19,27,29,26)          0.1712         estimate D2E/DX2                !
 ! D131  D(19,27,29,38)        179.2058         estimate D2E/DX2                !
 --------------------------------------------------------------------------------
 Trust Radius=3.00D-01 FncErr=1.00D-07 GrdErr=1.00D-06
 Number of steps in this run=    276 maximum allowed number of steps=    276.
 GradGradGradGradGradGradGradGradGradGradGradGradGradGradGradGradGradGrad

                          Input orientation:                          
 ---------------------------------------------------------------------
 Center     Atomic      Atomic             Coordinates (Angstroms)
 Number     Number       Type             X           Y           Z
 ---------------------------------------------------------------------
      1          6           0       12.294400    4.573270    4.170360
      2          1           0       12.270100    4.175230    5.207750
      3          1           0       13.322300    4.456470    3.760140
      4          1           0       11.591600    3.960660    3.565880
      5          7           0       11.316400    8.545060    4.063840
      6          6           0       11.250300    7.906120    2.745300
      7          6           0       11.915800    6.521050    2.786010
      8          6           0       12.490900    8.296910    4.904570
      9          6           0       12.729600    6.779990    5.064220
     10          7           0       11.871900    5.981340    4.158510
     11          6           0        9.552190    7.624970    7.763540
     12          1           0       10.128600    8.381550    8.340390
     13          1           0        9.831570    6.623850    8.155200
     14          8           0        9.919940    7.707980    6.382460
     15          8           0        6.433870   12.511900    5.443180
     16          8           0        4.490490   12.924400    7.178720
     17          8           0        4.303220   11.283200    8.721510
     18          7           0        7.670100    9.147140    7.327690
     19          6           0        9.520930    8.885640    5.725830
     20          6           0        8.403840    9.613260    6.180420
     21          6           0        7.984190   10.764300    5.500360
     22          6           0        8.048100    7.876920    7.960920
     23          6           0        6.528290    9.876750    7.818410
     24          6           0        6.096470   11.005000    7.221090
     25          6           0        6.811720   11.502800    6.014630
     26          6           0        8.669940   11.175800    4.346740
     27          6           0       10.194300    9.294930    4.560490
     28          6           0        7.213760    6.733180    7.376590
     29          6           0        9.760860   10.441100    3.875410
     30          6           0        4.913610   11.729400    7.762580
     31          1           0        7.855160    7.931630    9.055630
     32          1           0        6.010950    9.495690    8.691440
     33          1           0        8.358150   12.060400    3.805630
     34          1           0        7.488500    5.771310    7.859140
     35          1           0        6.134720    6.920410    7.560580
     36          1           0        7.378360    6.649030    6.281190
     37          1           0        3.679310   13.320500    7.640730
     38          9           0       10.409800   10.857700    2.759160
     39          1           0       12.502700    6.494240    6.114950
     40          1           0       13.807900    6.564800    4.883090
     41          1           0       13.376700    8.759600    4.417660
     42          1           0       12.378400    8.776070    5.902340
     43          1           0       11.374100    5.848200    2.084220
     44          1           0       12.970300    6.601370    2.434710
     45          1           0       10.188600    7.794590    2.431850
     46          1           0       11.767400    8.544630    1.997620
 ---------------------------------------------------------------------
                    Distance matrix (angstroms):
                    1          2          3          4          5
     1  C    0.000000
     2  H    1.111397   0.000000
     3  H    1.112880   1.811573   0.000000
     4  H    1.111132   1.789452   1.810770   0.000000
     5  N    4.091815   4.616653   4.564256   4.619570   0.000000
     6  C    3.772112   4.585105   4.150081   4.044316   1.466684
     7  C    2.419423   3.390166   2.681355   2.696090   2.467539
     8  C    3.800417   4.138710   4.092667   4.626434   1.465556
     9  C    2.420330   2.648871   2.729590   3.389497   2.472522
    10  N    1.470139   2.126382   2.141865   2.124365   2.624920
    11  C    5.453763   5.081319   6.346679   5.933524   4.200807
    12  H    6.048375   5.665032   6.825296   6.669377   4.441451
    13  H    5.113644   4.541985   6.016584   5.590362   4.757625
    14  O    4.511968   4.402672   5.387479   4.976945   2.833161
    15  O    9.949258  10.179247  10.731870  10.161208   6.440303
    16  O   11.819163  11.872448  12.704070  11.992790   8.687586
    17  O   11.383984  11.240148  12.351649  11.546454   8.853022
    18  N    7.230019   7.097467   8.165609   7.511921   4.930590
    19  C    5.357999   5.478531   6.158888   5.762680   2.470206
    20  C    6.676698   6.742865   7.526054   6.996393   3.755525
    21  C    7.660004   7.865780   8.444673   7.940097   4.253497
    22  C    6.581300   6.253618   7.560636   6.870943   5.129857
    23  C    8.641944   8.502427   9.592057   8.872499   6.228659
    24  C    9.438667   9.424065  10.347659   9.652965   6.577781
    25  C    9.026599   9.172690   9.855006   9.258915   5.731139
    26  C    7.534004   7.918994   8.193775   7.823304   3.742269
    27  C    5.182345   5.562303   5.816841   5.603225   1.438080
    28  C    6.384201   6.067417   7.454957   6.432252   5.575740
    29  C    6.398222   6.879865   6.965123   6.741181   2.459711
    30  C   10.889917  10.849451  11.816137  11.070735   8.050864
    31  H    7.406166   6.957616   8.367112   7.737373   6.105280
    32  H    9.173447   8.923024  10.157130   9.383580   7.103955
    33  H    8.466653   8.913204   9.081002   8.724590   4.601688
    34  H    6.175684   5.695704   7.250092   6.208540   6.062245
    35  H    7.412443   7.121426   8.495625   7.382092   6.458830
    36  H    5.738626   5.585793   6.818609   5.687850   4.900993
    37  H   12.758420  12.781120  13.660793  12.915701   9.691445
    38  F    6.710981   7.356067   7.103546   7.043906   2.805783
    39  H    2.741340   2.500984   3.220152   3.707680   3.133723
    40  H    2.600934   2.860118   2.437597   3.664502   3.286362
    41  H    4.331038   4.781763   4.353415   5.190562   2.101440
    42  H    4.546464   4.654236   4.913137   5.409831   2.135718
    43  H    2.612351   3.654871   2.922517   2.409446   3.345935
    44  H    2.753636   3.750491   2.545833   3.186488   3.027768
    45  H    4.222998   5.013784   4.767334   4.237151   2.120974
    46  H    4.557437   5.445117   4.715638   4.848002   2.114868
                    6          7          8          9         10
     6  C    0.000000
     7  C    1.537194   0.000000
     8  C    2.520764   2.823600   0.000000
     9  C    2.972186   2.433015   1.543863   0.000000
    10  N    2.467454   1.475456   2.510305   1.481149   0.000000
    11  C    5.305220   5.619706   4.154664   4.253969   4.591167
    12  H    5.726192   6.124270   4.170430   4.479228   5.127204
    13  H    5.737946   5.760450   4.520814   4.239943   4.533133
    14  O    3.877892   4.280971   3.023381   3.239307   3.425987
    15  O    7.189559   8.544144   7.398909   8.522595   8.594810
    16  O    9.514903  10.744023   9.517982  10.493227  10.574165
    17  O    9.766354  10.763810   9.514466  10.230276  10.306096
    18  N    5.946113   6.749013   5.462098   6.027042   6.141752
    19  C    3.582421   4.468694   3.137163   3.894490   4.051976
    20  C    4.776684   5.780800   4.479356   5.290134   5.413539
    21  C    5.140722   6.389869   5.172370   6.211591   6.308055
    22  C    6.120264   6.601301   5.408894   5.613428   5.716029
    23  C    7.205360   8.100064   6.821955   7.458668   7.557993
    24  C    7.496514   8.581395   7.320434   8.154827   8.244522
    25  C    6.582220   7.829014   6.615365   7.630827   7.716030
    26  C    4.462474   5.885421   4.816525   6.026505   6.104948
    27  C    2.517706   3.715744   2.527609   3.606441   3.735747
    28  C    6.254462   6.574770   6.033601   5.981115   5.711355
    29  C    3.149874   4.604058   3.620751   4.861112   4.942276
    30  C    8.941153  10.046085   8.795768   9.636779   9.718401
    31  H    7.165744   7.601754   6.233363   6.404514   6.627188
    32  H    8.082951   8.865091   7.600474   8.103827   8.200539
    33  H    5.171738   6.661899   5.696591   6.969674   7.030358
    34  H    6.697754   6.774935   6.334994   6.024794   5.740468
    35  H    7.094202   7.508455   7.024967   7.052941   6.735812
    36  H    5.392097   5.728964   5.545147   5.489439   5.014328
    37  H   10.516684  11.732033  10.505577  11.459687  11.537229
    38  F    3.068950   4.590783   3.935912   5.227092   5.279659
    39  H    3.862182   3.380386   2.171354   1.112282   2.118639
    40  H    3.593133   2.824836   2.176041   1.114381   2.147915
    41  H    2.836687   3.131711   1.111668   2.180742   3.170222
    42  H    3.463571   3.874355   1.112563   2.193199   3.332867
    43  H    2.165038   1.112958   3.898435   3.403823   2.137337
    44  H    2.181110   1.114376   3.033956   2.646538   2.135979
    45  H    1.112608   2.174984   3.415736   3.796770   3.017073
    46  H    1.110906   2.176800   3.005857   3.666581   3.354224
                   11         12         13         14         15
    11  C    0.000000
    12  H    1.112393   0.000000
    13  H    1.110717   1.792214   0.000000
    14  O    1.431612   2.081040   2.079845   0.000000
    15  O    6.244203   6.253371   7.319054   6.009374   0.000000
    16  O    7.351651   7.333161   8.317306   7.571261   2.637988
    17  O    6.469315   6.519193   7.252096   7.056975   4.098392
    18  N    2.459518   2.766932   3.423991   2.833094   4.049846
    19  C    2.396357   2.731171   3.333771   1.406149   4.770701
    20  C    2.788956   3.026116   3.856779   2.443250   3.581399
    21  C    4.175644   4.282728   5.253981   3.723751   2.336850
    22  C    1.537766   2.174196   2.188309   2.454356   5.516139
    23  C    3.770609   3.933233   4.648273   4.274202   3.548894
    24  C    4.864243   4.938967   5.832496   5.117867   2.354899
    25  C    5.060279   5.114006   6.124189   4.919044   1.219676
    26  C    5.006124   5.087707   6.047644   4.210989   2.826191
    27  C    3.668869   3.889245   4.493126   2.431719   5.026815
    28  C    2.532444   3.484584   2.733334   3.043344   6.143281
    29  C    4.805381   4.930824   5.735242   3.712216   4.220779
    30  C    6.193769   6.223993   7.099797   6.568096   2.881512
    31  H    2.154866   2.425392   2.535204   3.385140   6.004060
    32  H    4.111079   4.280138   4.809590   4.879293   4.452817
    33  H    6.063318   6.101842   7.116586   5.293657   2.566764
    34  H    2.775610   3.743672   2.510867   3.441391   7.237725
    35  H    3.495239   4.323669   3.756091   4.041797   5.986454
    36  H    2.806307   3.847824   3.087197   2.755224   5.997297
    37  H    8.181984   8.153287   9.108244   8.486995   3.615337
    38  F    6.019124   6.112325   6.883101   4.825868   5.074284
    39  H    3.563974   3.761765   3.363682   2.866248   8.572876
    40  H    5.247096   5.365701   5.149892   4.321019   9.489890
    41  H    5.206647   5.106945   5.576610   4.112850   7.958287
    42  H    3.574431   3.340858   4.024149   2.723115   7.035957
    43  H    6.223419   6.863585   6.311722   4.903899   8.949491
    44  H    6.413085   6.791271   6.525039   5.110187   9.311830
    45  H    5.372216   5.937926   5.852763   3.960682   6.739371
    46  H    6.244899   6.553090   6.734436   4.831140   7.487166
                   16         17         18         19         20
    16  O    0.000000
    17  O    2.260267   0.000000
    18  N    4.939616   4.223904   0.000000
    19  C    6.612700   6.476642   2.461688   0.000000
    20  C    5.222505   5.104990   1.439399   1.408536   0.000000
    21  C    4.437214   4.918801   2.460283   2.437575   1.401243
    22  C    6.224587   5.119118   1.468783   2.860484   2.512291
    23  C    3.721559   2.782917   1.441134   3.783792   2.504022
    24  C    2.503011   2.354655   2.437072   4.295860   2.888579
    25  C    2.960433   3.697025   2.830208   3.777929   2.476428
    26  C    5.342800   6.182102   3.741818   2.805514   2.423783
    27  C    7.249940   7.481452   3.748443   1.406756   2.435417
    28  C    6.766576   5.566214   2.457202   3.561057   3.337960
    29  C    6.697420   7.347085   4.238378   2.429213   2.799981
    30  C    1.395689   1.221154   3.802030   5.784697   4.377555
    31  H    6.306469   4.894991   2.120728   3.843500   3.375761
    32  H    4.044277   2.472335   2.175794   4.635403   3.470586
    33  H    5.204135   6.419686   4.622273   3.888229   3.410309
    34  H    7.785739   6.424222   3.422228   4.287288   4.291448
    35  H    6.236762   4.871970   2.714766   4.323755   3.782220
    36  H    6.966033   6.073482   2.724120   3.146658   3.138220
    37  H    1.014082   2.389130   5.782848   7.580195   6.180398
    38  F    7.670853   8.545232   5.594948   3.671545   4.156624
    39  H   10.328314   9.846815   5.644700   3.842026   5.151041
    40  H   11.512105  11.284312   7.093457   4.947183   6.338773
    41  H   10.194790  10.354696   6.417456   4.073593   5.344660
    42  H    9.003161   8.913022   4.933295   2.865012   4.071283
    43  H   11.109033  11.117112   7.217797   5.091326   6.306899
    44  H   11.592822  11.685960   7.649465   5.286541   6.629810
    45  H    9.017549   9.293434   5.669346   3.533621   4.532627
    46  H    9.948849  10.412706   6.749854   4.366058   5.472780
                   21         22         23         24         25
    21  C    0.000000
    22  C    3.794127   0.000000
    23  C    2.877628   2.515840   0.000000
    24  C    2.565606   3.760464   1.347668   0.000000
    25  C    1.478020   4.296939   2.444994   1.488265   0.000000
    26  C    1.403718   4.932706   4.280968   3.861840   2.518287
    27  C    2.815491   4.263784   4.938845   5.176422   4.293141
    28  C    4.512619   1.531570   3.247631   4.418253   4.976530
    29  C    2.429296   5.118589   5.129839   4.993928   3.794851
    30  C    3.934148   4.970510   2.458174   1.489001   2.590270
    31  H    4.547594   1.112928   2.659848   3.987998   4.805175
    32  H    3.960560   2.702602   1.083987   2.108853   3.440209
    33  H    2.166063   5.904581   4.921292   4.230181   2.753551
    34  H    5.544321   2.181079   4.216432   5.453106   6.058896
    35  H    4.737144   2.176283   2.993546   4.098853   4.883297
    36  H    4.232277   2.185808   3.674757   4.636931   4.893998
    37  H    5.444937   6.987232   4.472994   3.373470   3.969915
    38  F    3.661487   6.443678   6.451697   6.207683   4.894938
    39  H    6.247245   5.016261   7.073664   7.912666   7.581754
    40  H    7.206415   6.661080   8.519263   9.200422   8.637752
    41  H    5.854078   6.459705   7.727473   8.118053   7.292079
    42  H    4.839807   4.878291   6.253528   6.794842   6.199644
    43  H    6.879647   7.050786   8.520095   8.990740   8.260626
    44  H    7.182582   7.509599   9.011761   9.463135   8.646846
    45  H    4.805659   5.929514   6.837272   7.070296   6.163640
    46  H    5.613270   7.059743   7.943829   8.093053   7.031778
                   26         27         28         29         30
    26  C    0.000000
    27  C    2.430439   0.000000
    28  C    5.571115   4.834935   0.000000
    29  C    1.397155   1.403891   5.700408   0.000000
    30  C    5.107294   6.638201   5.513791   6.345521   0.000000
    31  H    5.775998   5.247518   2.160290   6.063317   4.974711
    32  H    5.363713   5.882641   3.287407   6.176550   2.656388
    33  H    1.082834   3.404274   6.514649   2.143501   5.256603
    34  H    6.552959   5.533384   1.110644   6.545278   6.491396
    35  H    5.904613   5.578447   1.110511   6.254968   4.965712
    36  H    5.089393   4.229789   1.110890   5.083687   5.837779
    37  H    6.352676   8.254586   7.480300   7.710631   2.017410
    38  F    2.376702   2.394469   6.967567   1.356721   7.483460
    39  H    6.303461   3.948281   5.442583   5.301974   9.365675
    40  H    6.924422   4.540461   7.051849   5.693826  10.680494
    41  H    5.291185   3.230271   7.130461   4.024398   9.572465
    42  H    4.683083   2.615353   5.746331   3.705710   8.240494
    43  H    6.388646   4.404973   6.789757   5.187064  10.419703
    44  H    6.563106   4.413659   7.587971   5.207653  10.935865
    45  H    4.172015   2.604258   5.867429   3.044806   8.469057
    46  H    4.694218   3.099338   7.276696   3.338996   9.505365
                   31         32         33         34         35
    31  H    0.000000
    32  H    2.445410   0.000000
    33  H    6.697928   5.996518   0.000000
    34  H    2.496600   4.092296   7.532588   0.000000
    35  H    2.493522   2.815356   6.742610   1.800636   0.000000
    36  H    3.093528   3.972731   6.030863   1.808991   1.804751
    37  H    6.962728   4.601055   6.179594   8.458599   6.855408
    38  F    7.398216   7.509787   2.598241   7.772719   7.538713
    39  H    5.684480   7.601962   7.313849   5.357894   6.543901
    40  H    7.396853   9.158934   7.814238   7.030030   8.134685
    41  H    7.258354   8.547590   6.037856   7.446110   8.105976
    42  H    5.578173   6.988659   5.598699   6.063726   6.721367
    43  H    8.082337   9.258667   7.116926   6.960855   7.654493
    44  H    8.471767   9.795729   7.276837   7.756518   8.549941
    45  H    7.024114   7.715502   4.840966   6.390593   6.595605
    46  H    8.093015   8.879665   5.220395   7.769022   8.081565
                   36         37         38         39         40
    36  H    0.000000
    37  H    7.748537   0.000000
    38  F    6.269548   8.671482   0.000000
    39  H    5.129372  11.259576   5.889087   0.000000
    40  H    6.580332  12.483285   5.872576   1.796108   0.000000
    41  H    6.626261  11.190593   3.994389   2.962520   2.284667
    42  H    5.446855   9.967347   4.253017   2.295082   2.823483
    43  H    5.849942  12.079729   5.145922   4.235315   3.777641
    44  H    6.787302  12.592531   4.977728   3.711373   2.587948
    45  H    4.901752  10.001948   3.088479   4.539955   4.540957
    46  H    6.419186  10.957683   2.788066   4.658022   4.050840
                   41         42         43         44         45
    41  H    0.000000
    42  H    1.789175   0.000000
    43  H    4.234572   4.915189   0.000000
    44  H    2.958920   4.135713   1.799434   0.000000
    45  H    3.877972   4.219340   2.305361   3.026820   0.000000
    46  H    2.914216   3.959005   2.726338   2.326860   1.801034
                   46
    46  H    0.000000
 Stoichiometry    C18H20FN3O4
 Framework group  C1[X(C18H20FN3O4)]
 Deg. of freedom   132
 Full point group                 C1      NOp   1
 Largest Abelian subgroup         C1      NOp   1
 Largest concise Abelian subgroup C1      NOp   1
                         Standard orientation:                         
 ---------------------------------------------------------------------
 Center     Atomic      Atomic             Coordinates (Angstroms)
 Number     Number       Type             X           Y           Z
 ---------------------------------------------------------------------
      1          6           0        5.533968   -1.650149   -0.847893
      2          1           0        5.331263   -2.655843   -0.420465
      3          1           0        6.524307   -1.294170   -0.485941
      4          1           0        5.571533   -1.763154   -1.952625
      5          7           0        2.698310    1.067376    0.299732
      6          6           0        3.501571    1.527600   -0.837866
      7          6           0        4.731893    0.625483   -1.026170
      8          6           0        3.387608    0.481406    1.452712
      9          6           0        4.323899   -0.659320    0.999264
     10          7           0        4.461982   -0.716011   -0.474344
     11          6           0        0.450163   -2.417062    0.971531
     12          1           0        0.250902   -2.202459    2.044685
     13          1           0        1.049039   -3.351307    0.924346
     14          8           0        1.212369   -1.342234    0.411797
     15          8           0       -3.629081    2.168194   -0.179674
     16          8           0       -5.974589    0.960978   -0.193879
     17          8           0       -5.822585   -1.293601   -0.143148
     18          7           0       -1.612571   -1.323574    0.197811
     19          6           0        0.530658   -0.117188    0.303226
     20          6           0       -0.873352   -0.088498    0.194118
     21          6           0       -1.547114    1.131127    0.045659
     22          6           0       -0.887593   -2.600406    0.235653
     23          6           0       -3.050069   -1.322316    0.095517
     24          6           0       -3.752493   -0.178131   -0.021306
     25          6           0       -3.021428    1.117680   -0.058072
     26          6           0       -0.811873    2.325179   -0.018266
     27          6           0        1.262339    1.081643    0.223177
     28          6           0       -0.669433   -3.119769   -1.188557
     29          6           0        0.582819    2.299305    0.060503
     30          6           0       -5.237450   -0.221976   -0.121825
     31          1           0       -1.483064   -3.353178    0.798999
     32          1           0       -3.567661   -2.274596    0.112598
     33          1           0       -1.314540    3.276941   -0.136609
     34          1           0       -0.130223   -4.090465   -1.165496
     35          1           0       -1.648966   -3.276281   -1.687810
     36          1           0       -0.079010   -2.391379   -1.784312
     37          1           0       -6.973488    0.797074   -0.254679
     38          9           0        1.273367    3.465453   -0.002229
     39          1           0        3.903791   -1.625480    1.355935
     40          1           0        5.316875   -0.524537    1.486786
     41          1           0        3.988208    1.276562    1.945470
     42          1           0        2.660471    0.106033    2.206477
     43          1           0        4.960028    0.561834   -2.113634
     44          1           0        5.613010    1.082731   -0.519820
     45          1           0        2.887884    1.510463   -1.765762
     46          1           0        3.831696    2.573246   -0.659672
 ---------------------------------------------------------------------
 Rotational constants (GHZ):      0.4185848      0.1199869      0.0985765
 Standard basis: 3-21G (6D, 7F)
 There are   274 symmetry adapted cartesian basis functions of A   symmetry.
 There are   274 symmetry adapted basis functions of A   symmetry.
   274 basis functions,   450 primitive gaussians,   274 cartesian basis functions
    95 alpha electrons       95 beta electrons
       nuclear repulsion energy      2431.7754278847 Hartrees.
 NAtoms=   46 NActive=   46 NUniq=   46 SFac= 1.00D+00 NAtFMM=   60 NAOKFM=F Big=F
 Integral buffers will be    131072 words long.
 Raffenetti 2 integral format.
 Two-electron integral symmetry is turned on.
 One-electron integrals computed using PRISM.
 PrsmSu:  requested number of processors reduced to:   9 ShMem   1 Linda.
 NBasis=   274 RedAO= T EigKep=  1.22D-03  NBF=   274
 NBsUse=   274 1.00D-06 EigRej= -1.00D+00 NBFU=   274
 ExpMin= 1.83D-01 ExpMax= 4.14D+02 ExpMxC= 4.14D+02 IAcc=1 IRadAn=         1 AccDes= 0.00D+00
 Harris functional with IExCor=  402 and IRadAn=       1 diagonalized for initial guess.
 HarFok:  IExCor=  402 AccDes= 0.00D+00 IRadAn=         1 IDoV= 1 UseB2=F ITyADJ=14
 ICtDFT=  3500011 ScaDFX=  1.000000  1.000000  1.000000  1.000000
 FoFCou: FMM=F IPFlag=           0 FMFlag=      100000 FMFlg1=           0
         NFxFlg=           0 DoJE=T BraDBF=F KetDBF=T FulRan=T
         wScrn=  0.000000 ICntrl=     500 IOpCl=  0 I1Cent=   200000004 NGrid=           0
         NMat0=    1 NMatS0=      1 NMatT0=    0 NMatD0=    1 NMtDS0=    0 NMtDT0=    0
 Petite list used in FoFCou.
 Requested convergence on RMS density matrix=1.00D-08 within 128 cycles.
 Requested convergence on MAX density matrix=1.00D-06.
 Requested convergence on             energy=1.00D-06.
 No special actions if energy rises.
 Integral accuracy reduced to 1.0D-05 until final iterations.
 EnCoef did     4 forward-backward iterations
 Initial convergence to 1.0D-05 achieved.  Increase integral accuracy.
 SCF Done:  E(RB3LYP) =  -1255.98227144     A.U. after   17 cycles
            NFock= 17  Conv=0.52D-08     -V/T= 2.0088

 **********************************************************************

            Population analysis using the SCF density.

 **********************************************************************

 Orbital symmetries:
       Occupied  (A) (A) (A) (A) (A) (A) (A) (A) (A) (A) (A) (A)
                 (A) (A) (A) (A) (A) (A) (A) (A) (A) (A) (A) (A)
                 (A) (A) (A) (A) (A) (A) (A) (A) (A) (A) (A) (A)
                 (A) (A) (A) (A) (A) (A) (A) (A) (A) (A) (A) (A)
                 (A) (A) (A) (A) (A) (A) (A) (A) (A) (A) (A) (A)
                 (A) (A) (A) (A) (A) (A) (A) (A) (A) (A) (A) (A)
                 (A) (A) (A) (A) (A) (A) (A) (A) (A) (A) (A) (A)
                 (A) (A) (A) (A) (A) (A) (A) (A) (A) (A) (A)
       Virtual   (A) (A) (A) (A) (A) (A) (A) (A) (A) (A) (A) (A)
                 (A) (A) (A) (A) (A) (A) (A) (A) (A) (A) (A) (A)
                 (A) (A) (A) (A) (A) (A) (A) (A) (A) (A) (A) (A)
                 (A) (A) (A) (A) (A) (A) (A) (A) (A) (A) (A) (A)
                 (A) (A) (A) (A) (A) (A) (A) (A) (A) (A) (A) (A)
                 (A) (A) (A) (A) (A) (A) (A) (A) (A) (A) (A) (A)
                 (A) (A) (A) (A) (A) (A) (A) (A) (A) (A) (A) (A)
                 (A) (A) (A) (A) (A) (A) (A) (A) (A) (A) (A) (A)
                 (A) (A) (A) (A) (A) (A) (A) (A) (A) (A) (A) (A)
                 (A) (A) (A) (A) (A) (A) (A) (A) (A) (A) (A) (A)
                 (A) (A) (A) (A) (A) (A) (A) (A) (A) (A) (A) (A)
                 (A) (A) (A) (A) (A) (A) (A) (A) (A) (A) (A) (A)
                 (A) (A) (A) (A) (A) (A) (A) (A) (A) (A) (A) (A)
                 (A) (A) (A) (A) (A) (A) (A) (A) (A) (A) (A) (A)
                 (A) (A) (A) (A) (A) (A) (A) (A) (A) (A) (A)
 The electronic state is 1-A.
 Alpha  occ. eigenvalues --  -24.57526 -19.09178 -19.06085 -19.01410 -18.99921
 Alpha  occ. eigenvalues --  -14.33621 -14.25630 -14.24338 -10.25572 -10.21721
 Alpha  occ. eigenvalues --  -10.21157 -10.21058 -10.20420 -10.20355 -10.20053
 Alpha  occ. eigenvalues --  -10.19818 -10.18465 -10.15938 -10.15504 -10.14993
 Alpha  occ. eigenvalues --  -10.14971 -10.14781 -10.14586 -10.14326 -10.13891
 Alpha  occ. eigenvalues --  -10.13831  -1.21492  -1.08687  -1.08521  -1.03555
 Alpha  occ. eigenvalues --   -0.99744  -0.98599  -0.94744  -0.90967  -0.87202
 Alpha  occ. eigenvalues --   -0.83248  -0.79758  -0.78149  -0.76675  -0.74839
 Alpha  occ. eigenvalues --   -0.72329  -0.71222  -0.67417  -0.66256  -0.65581
 Alpha  occ. eigenvalues --   -0.64545  -0.63116  -0.60728  -0.58515  -0.56957
 Alpha  occ. eigenvalues --   -0.55600  -0.54055  -0.53148  -0.51915  -0.51250
 Alpha  occ. eigenvalues --   -0.50857  -0.49212  -0.48720  -0.48093  -0.47933
 Alpha  occ. eigenvalues --   -0.47508  -0.46415  -0.45280  -0.45137  -0.44470
 Alpha  occ. eigenvalues --   -0.43671  -0.43011  -0.42800  -0.42472  -0.41955
 Alpha  occ. eigenvalues --   -0.41510  -0.40925  -0.40824  -0.39958  -0.39144
 Alpha  occ. eigenvalues --   -0.38923  -0.37556  -0.37337  -0.37078  -0.36436
 Alpha  occ. eigenvalues --   -0.35594  -0.35489  -0.34927  -0.34230  -0.33430
 Alpha  occ. eigenvalues --   -0.33261  -0.31311  -0.28723  -0.27218  -0.25574
 Alpha  occ. eigenvalues --   -0.24902  -0.22427  -0.21158  -0.20311  -0.18984
 Alpha virt. eigenvalues --   -0.04695  -0.03537   0.01157   0.04372   0.05534
 Alpha virt. eigenvalues --    0.07960   0.09066   0.09774   0.11244   0.11900
 Alpha virt. eigenvalues --    0.12308   0.12452   0.13015   0.13727   0.14137
 Alpha virt. eigenvalues --    0.14454   0.15156   0.15199   0.15941   0.16386
 Alpha virt. eigenvalues --    0.17338   0.17612   0.18084   0.18772   0.19102
 Alpha virt. eigenvalues --    0.19436   0.19741   0.20474   0.20678   0.20812
 Alpha virt. eigenvalues --    0.22003   0.22253   0.23074   0.23590   0.23949
 Alpha virt. eigenvalues --    0.24679   0.25470   0.26461   0.27553   0.27991
 Alpha virt. eigenvalues --    0.29594   0.30418   0.32858   0.34138   0.35505
 Alpha virt. eigenvalues --    0.37341   0.38229   0.40966   0.41189   0.42862
 Alpha virt. eigenvalues --    0.44295   0.49314   0.54167   0.59040   0.61762
 Alpha virt. eigenvalues --    0.63530   0.64178   0.65866   0.66116   0.66542
 Alpha virt. eigenvalues --    0.67952   0.68200   0.68604   0.69439   0.69748
 Alpha virt. eigenvalues --    0.70718   0.71372   0.71550   0.72115   0.72962
 Alpha virt. eigenvalues --    0.73183   0.74045   0.74616   0.74874   0.75583
 Alpha virt. eigenvalues --    0.75999   0.76533   0.76742   0.78334   0.78419
 Alpha virt. eigenvalues --    0.80014   0.81074   0.81673   0.83506   0.83814
 Alpha virt. eigenvalues --    0.84565   0.85475   0.85792   0.88164   0.88997
 Alpha virt. eigenvalues --    0.90178   0.91099   0.92409   0.95368   0.96081
 Alpha virt. eigenvalues --    0.96527   0.97259   0.98168   0.99296   0.99364
 Alpha virt. eigenvalues --    1.00988   1.01302   1.01642   1.02112   1.03475
 Alpha virt. eigenvalues --    1.04154   1.04838   1.05319   1.06633   1.07638
 Alpha virt. eigenvalues --    1.08362   1.08739   1.10049   1.10780   1.11564
 Alpha virt. eigenvalues --    1.13491   1.14465   1.15796   1.16923   1.17739
 Alpha virt. eigenvalues --    1.19254   1.22820   1.24015   1.30134   1.31638
 Alpha virt. eigenvalues --    1.33268   1.33830   1.35588   1.36555   1.40180
 Alpha virt. eigenvalues --    1.40859   1.42673   1.44927   1.45313   1.48888
 Alpha virt. eigenvalues --    1.50215   1.52813   1.54773   1.55857   1.57210
 Alpha virt. eigenvalues --    1.59985   1.61264   1.62829   1.64408   1.65781
 Alpha virt. eigenvalues --    1.66331   1.67238   1.67790   1.70714   1.73778
 Alpha virt. eigenvalues --    1.75082   1.77922   1.79085   1.83056   1.87400
 Alpha virt. eigenvalues --    1.89032   1.90742   1.92837   1.93505   1.95368
 Alpha virt. eigenvalues --    1.95722   1.98571   2.04459   2.05615   2.09877
 Alpha virt. eigenvalues --    2.10746   2.17282   2.23239   2.26130   2.39431
 Alpha virt. eigenvalues --    2.43588   2.71443   2.88753   2.95561   3.15377
 Alpha virt. eigenvalues --    3.39466   3.46486   3.53723   4.07505
          Condensed to atoms (all electrons):
               1          2          3          4          5          6
     1  C    5.195921   0.364036   0.321906   0.364222   0.000156   0.004674
     2  H    0.364036   0.535719  -0.037889  -0.023880   0.000009  -0.000118
     3  H    0.321906  -0.037889   0.636871  -0.038269  -0.000005  -0.000314
     4  H    0.364222  -0.023880  -0.038269   0.533831   0.000009   0.000122
     5  N    0.000156   0.000009  -0.000005   0.000009   7.108150   0.295646
     6  C    0.004674  -0.000118  -0.000314   0.000122   0.295646   5.186422
     7  C   -0.082888   0.004737  -0.007871  -0.002664  -0.053748   0.224525
     8  C    0.004481   0.000119  -0.000347  -0.000102   0.291432  -0.061918
     9  C   -0.083878  -0.001428  -0.007021   0.004523  -0.062164  -0.004442
    10  N    0.302299  -0.031594  -0.050155  -0.032249  -0.004118  -0.046459
    11  C   -0.000001   0.000000   0.000000   0.000000  -0.000038  -0.000003
    12  H    0.000000   0.000000   0.000000   0.000000   0.000009   0.000001
    13  H    0.000000   0.000002   0.000000   0.000000   0.000000   0.000000
    14  O    0.000001  -0.000001   0.000000   0.000000  -0.002825   0.000051
    15  O    0.000000   0.000000   0.000000   0.000000   0.000000   0.000000
    16  O    0.000000   0.000000   0.000000   0.000000   0.000000   0.000000
    17  O    0.000000   0.000000   0.000000   0.000000   0.000000   0.000000
    18  N    0.000000   0.000000   0.000000   0.000000  -0.000003   0.000000
    19  C   -0.000001  -0.000001   0.000000   0.000000  -0.075092   0.001150
    20  C    0.000000   0.000000   0.000000   0.000000   0.005014  -0.000039
    21  C    0.000000   0.000000   0.000000   0.000000  -0.000400  -0.000019
    22  C    0.000000   0.000000   0.000000   0.000000  -0.000005   0.000000
    23  C    0.000000   0.000000   0.000000   0.000000   0.000000   0.000000
    24  C    0.000000   0.000000   0.000000   0.000000   0.000000   0.000000
    25  C    0.000000   0.000000   0.000000   0.000000   0.000000   0.000000
    26  C    0.000000   0.000000   0.000000   0.000000   0.004214   0.000274
    27  C    0.000002   0.000001  -0.000001   0.000000   0.347531  -0.067793
    28  C    0.000000   0.000000   0.000000   0.000000   0.000000   0.000000
    29  C    0.000000   0.000000   0.000000   0.000000  -0.083820  -0.000714
    30  C    0.000000   0.000000   0.000000   0.000000   0.000000   0.000000
    31  H    0.000000   0.000000   0.000000   0.000000   0.000000   0.000000
    32  H    0.000000   0.000000   0.000000   0.000000   0.000000   0.000000
    33  H    0.000000   0.000000   0.000000   0.000000  -0.000012   0.000001
    34  H    0.000000   0.000000   0.000000   0.000000   0.000000   0.000000
    35  H    0.000000   0.000000   0.000000   0.000000   0.000000   0.000000
    36  H    0.000000   0.000000   0.000000   0.000000   0.000000   0.000001
    37  H    0.000000   0.000000   0.000000   0.000000   0.000000   0.000000
    38  F    0.000000   0.000000   0.000000   0.000000  -0.002528   0.002937
    39  H   -0.001668   0.004501  -0.001315   0.000061   0.001600   0.000035
    40  H   -0.006018  -0.001729   0.014738  -0.000244   0.002502  -0.000418
    41  H   -0.000086   0.000003   0.000001   0.000002  -0.048172  -0.001267
    42  H   -0.000055  -0.000004   0.000001   0.000001  -0.023090   0.002607
    43  H   -0.003007   0.000129  -0.001629   0.004987   0.002286  -0.032211
    44  H   -0.003780  -0.000311   0.012471  -0.000987   0.000534  -0.061742
    45  H   -0.000064   0.000000   0.000008  -0.000016  -0.031032   0.369340
    46  H   -0.000075   0.000001   0.000012  -0.000002  -0.051345   0.352749
               7          8          9         10         11         12
     1  C   -0.082888   0.004481  -0.083878   0.302299  -0.000001   0.000000
     2  H    0.004737   0.000119  -0.001428  -0.031594   0.000000   0.000000
     3  H   -0.007871  -0.000347  -0.007021  -0.050155   0.000000   0.000000
     4  H   -0.002664  -0.000102   0.004523  -0.032249   0.000000   0.000000
     5  N   -0.053748   0.291432  -0.062164  -0.004118  -0.000038   0.000009
     6  C    0.224525  -0.061918  -0.004442  -0.046459  -0.000003   0.000001
     7  C    5.343194  -0.009754  -0.081780   0.272718   0.000001   0.000000
     8  C   -0.009754   5.191750   0.221325  -0.038522  -0.000026  -0.000004
     9  C   -0.081780   0.221325   5.330079   0.295970   0.000008   0.000011
    10  N    0.272718  -0.038522   0.295970   6.968047   0.000007   0.000000
    11  C    0.000001  -0.000026   0.000008   0.000007   5.182287   0.334928
    12  H    0.000000  -0.000004   0.000011   0.000000   0.334928   0.580213
    13  H    0.000000  -0.000003   0.000012   0.000002   0.370372  -0.033924
    14  O   -0.000020   0.002556   0.000358  -0.000115   0.261001  -0.036771
    15  O    0.000000   0.000000   0.000000   0.000000   0.000000   0.000000
    16  O    0.000000   0.000000   0.000000   0.000000   0.000000   0.000000
    17  O    0.000000   0.000000   0.000000   0.000000   0.000000   0.000000
    18  N    0.000000   0.000000   0.000000   0.000000  -0.046760  -0.001225
    19  C    0.000225  -0.002374   0.000874   0.000333  -0.076363  -0.001776
    20  C   -0.000002   0.000017   0.000000   0.000002  -0.006138   0.003759
    21  C    0.000000   0.000000   0.000000   0.000000   0.000739  -0.000130
    22  C    0.000000   0.000008   0.000002   0.000000   0.203212  -0.057749
    23  C    0.000000   0.000000   0.000000   0.000000   0.002028  -0.000136
    24  C    0.000000   0.000000   0.000000   0.000000  -0.000105  -0.000001
    25  C    0.000000   0.000000   0.000000   0.000000  -0.000009   0.000000
    26  C    0.000005  -0.000042   0.000002   0.000000   0.000011  -0.000005
    27  C    0.002806  -0.059635   0.000982  -0.000435   0.001044   0.000639
    28  C    0.000000   0.000000   0.000000   0.000000  -0.087072   0.004618
    29  C    0.000102   0.000111  -0.000180  -0.000001  -0.000057  -0.000001
    30  C    0.000000   0.000000   0.000000   0.000000   0.000000   0.000000
    31  H    0.000000   0.000000   0.000000   0.000000  -0.026829   0.000476
    32  H    0.000000   0.000000   0.000000   0.000000   0.000051  -0.000005
    33  H    0.000000   0.000001   0.000000   0.000000   0.000000   0.000000
    34  H    0.000000   0.000000   0.000000   0.000000   0.000112  -0.000032
    35  H    0.000000   0.000000   0.000000   0.000000   0.003762  -0.000071
    36  H    0.000000   0.000000   0.000000   0.000000  -0.002836   0.000139
    37  H    0.000000   0.000000   0.000000   0.000000   0.000000   0.000000
    38  F    0.000027  -0.000043   0.000000   0.000000   0.000000   0.000000
    39  H    0.004503  -0.033753   0.363710  -0.035073   0.000244  -0.000019
    40  H   -0.005674  -0.053024   0.314750  -0.051648  -0.000001   0.000000
    41  H   -0.001250   0.365703  -0.071079   0.000968  -0.000002   0.000000
    42  H    0.000078   0.375356  -0.033875   0.001447   0.000259   0.000015
    43  H    0.368939   0.000106   0.003997  -0.028204   0.000000   0.000000
    44  H    0.330935  -0.001512  -0.006135  -0.051394   0.000000   0.000000
    45  H   -0.031365   0.002856   0.000272   0.001209   0.000000   0.000000
    46  H   -0.059160   0.000113  -0.001225   0.002193   0.000000   0.000000
              13         14         15         16         17         18
     1  C    0.000000   0.000001   0.000000   0.000000   0.000000   0.000000
     2  H    0.000002  -0.000001   0.000000   0.000000   0.000000   0.000000
     3  H    0.000000   0.000000   0.000000   0.000000   0.000000   0.000000
     4  H    0.000000   0.000000   0.000000   0.000000   0.000000   0.000000
     5  N    0.000000  -0.002825   0.000000   0.000000   0.000000  -0.000003
     6  C    0.000000   0.000051   0.000000   0.000000   0.000000   0.000000
     7  C    0.000000  -0.000020   0.000000   0.000000   0.000000   0.000000
     8  C   -0.000003   0.002556   0.000000   0.000000   0.000000   0.000000
     9  C    0.000012   0.000358   0.000000   0.000000   0.000000   0.000000
    10  N    0.000002  -0.000115   0.000000   0.000000   0.000000   0.000000
    11  C    0.370372   0.261001   0.000000   0.000000   0.000000  -0.046760
    12  H   -0.033924  -0.036771   0.000000   0.000000   0.000000  -0.001225
    13  H    0.503082  -0.024202   0.000000   0.000000   0.000000   0.002185
    14  O   -0.024202   8.209788   0.000000   0.000000   0.000000  -0.006720
    15  O    0.000000   0.000000   8.074422  -0.001581   0.000001  -0.000007
    16  O    0.000000   0.000000  -0.001581   8.223058  -0.066757   0.000000
    17  O    0.000000   0.000000   0.000001  -0.066757   8.151852   0.000044
    18  N    0.002185  -0.006720  -0.000007   0.000000   0.000044   7.344583
    19  C    0.003489   0.281726  -0.000008   0.000000   0.000000  -0.049843
    20  C   -0.000406  -0.064976   0.004169  -0.000001   0.000000   0.205871
    21  C    0.000005   0.003496  -0.130887   0.000063  -0.000012  -0.031953
    22  C   -0.041090  -0.043978   0.000000   0.000000   0.000001   0.237266
    23  C   -0.000038  -0.000067   0.004386   0.002201   0.000330   0.285415
    24  C    0.000000   0.000001  -0.119810  -0.079215  -0.110141  -0.018086
    25  C    0.000000  -0.000001   0.638353   0.004002   0.002540  -0.032798
    26  C    0.000000  -0.000239   0.003988   0.000000   0.000000   0.004854
    27  C    0.000007  -0.053394  -0.000005   0.000000   0.000000   0.003978
    28  C   -0.001748  -0.000793   0.000000   0.000000   0.000000  -0.071891
    29  C    0.000001   0.002171   0.000463   0.000000   0.000000  -0.000343
    30  C    0.000000   0.000000  -0.004051   0.233069   0.509799   0.003474
    31  H   -0.000129   0.001548   0.000000   0.000000   0.000000  -0.033862
    32  H    0.000000   0.000000  -0.000010   0.000120   0.014747  -0.028930
    33  H    0.000000   0.000000   0.009938   0.000000   0.000000  -0.000006
    34  H    0.002505  -0.000015   0.000000   0.000000   0.000000   0.003126
    35  H   -0.000006   0.000021   0.000000   0.000000   0.000000  -0.000909
    36  H   -0.000300   0.005230   0.000000   0.000000   0.000000  -0.000819
    37  H    0.000000   0.000000   0.000351   0.233905   0.004259   0.000000
    38  F    0.000000   0.000000   0.000000   0.000000   0.000000   0.000000
    39  H    0.000093   0.003206   0.000000   0.000000   0.000000   0.000000
    40  H   -0.000001   0.000034   0.000000   0.000000   0.000000   0.000000
    41  H    0.000000   0.000067   0.000000   0.000000   0.000000   0.000000
    42  H   -0.000009   0.002585   0.000000   0.000000   0.000000   0.000001
    43  H    0.000000   0.000000   0.000000   0.000000   0.000000   0.000000
    44  H    0.000000   0.000000   0.000000   0.000000   0.000000   0.000000
    45  H    0.000000  -0.000005   0.000000   0.000000   0.000000   0.000000
    46  H    0.000000   0.000000   0.000000   0.000000   0.000000   0.000000
              19         20         21         22         23         24
     1  C   -0.000001   0.000000   0.000000   0.000000   0.000000   0.000000
     2  H   -0.000001   0.000000   0.000000   0.000000   0.000000   0.000000
     3  H    0.000000   0.000000   0.000000   0.000000   0.000000   0.000000
     4  H    0.000000   0.000000   0.000000   0.000000   0.000000   0.000000
     5  N   -0.075092   0.005014  -0.000400  -0.000005   0.000000   0.000000
     6  C    0.001150  -0.000039  -0.000019   0.000000   0.000000   0.000000
     7  C    0.000225  -0.000002   0.000000   0.000000   0.000000   0.000000
     8  C   -0.002374   0.000017   0.000000   0.000008   0.000000   0.000000
     9  C    0.000874   0.000000   0.000000   0.000002   0.000000   0.000000
    10  N    0.000333   0.000002   0.000000   0.000000   0.000000   0.000000
    11  C   -0.076363  -0.006138   0.000739   0.203212   0.002028  -0.000105
    12  H   -0.001776   0.003759  -0.000130  -0.057749  -0.000136  -0.000001
    13  H    0.003489  -0.000406   0.000005  -0.041090  -0.000038   0.000000
    14  O    0.281726  -0.064976   0.003496  -0.043978  -0.000067   0.000001
    15  O   -0.000008   0.004169  -0.130887   0.000000   0.004386  -0.119810
    16  O    0.000000  -0.000001   0.000063   0.000000   0.002201  -0.079215
    17  O    0.000000   0.000000  -0.000012   0.000001   0.000330  -0.110141
    18  N   -0.049843   0.205871  -0.031953   0.237266   0.285415  -0.018086
    19  C    5.383320   0.086810   0.018285  -0.017491   0.000490  -0.000200
    20  C    0.086810   5.488563   0.174921  -0.051018  -0.058389  -0.008621
    21  C    0.018285   0.174921   6.079554   0.000707   0.001943  -0.170987
    22  C   -0.017491  -0.051018   0.000707   5.421660  -0.047453   0.001619
    23  C    0.000490  -0.058389   0.001943  -0.047453   5.076793   0.330033
    24  C   -0.000200  -0.008621  -0.170987   0.001619   0.330033   6.382532
    25  C    0.005193  -0.014523   0.002097   0.000174  -0.027372  -0.038724
    26  C   -0.041833  -0.054860   0.219129  -0.000072  -0.000993   0.011007
    27  C    0.193371  -0.023422  -0.043016  -0.000617  -0.000058  -0.000026
    28  C    0.000317   0.002187  -0.000062   0.249398  -0.000700   0.000026
    29  C   -0.025476  -0.046521  -0.001398  -0.000002   0.000003   0.000044
    30  C   -0.000002  -0.000527   0.004382  -0.000044  -0.091607   0.104271
    31  H    0.000556   0.002381  -0.000027   0.355039  -0.002472   0.000299
    32  H   -0.000040   0.002075  -0.000342  -0.000355   0.362738  -0.052537
    33  H   -0.000652   0.004453  -0.050753   0.000000  -0.000034   0.000685
    34  H    0.000006  -0.000075  -0.000001  -0.038027   0.000022  -0.000001
    35  H   -0.000062  -0.000080   0.000007  -0.037662   0.002632  -0.000053
    36  H    0.001003   0.000774  -0.000015  -0.041057  -0.000072   0.000008
    37  H    0.000000   0.000000   0.000005   0.000000  -0.000100   0.008177
    38  F    0.002430  -0.000230   0.003045   0.000000   0.000000   0.000000
    39  H   -0.000004   0.000011   0.000000   0.000013   0.000000   0.000000
    40  H    0.000015   0.000000   0.000000   0.000000   0.000000   0.000000
    41  H   -0.000119   0.000012  -0.000001   0.000000   0.000000   0.000000
    42  H    0.001626  -0.000088  -0.000007   0.000009   0.000000   0.000000
    43  H   -0.000007   0.000000   0.000000   0.000000   0.000000   0.000000
    44  H    0.000004   0.000000   0.000000   0.000000   0.000000   0.000000
    45  H    0.001672  -0.000032  -0.000013   0.000000   0.000000   0.000000
    46  H   -0.000338   0.000006  -0.000001   0.000000   0.000000   0.000000
              25         26         27         28         29         30
     1  C    0.000000   0.000000   0.000002   0.000000   0.000000   0.000000
     2  H    0.000000   0.000000   0.000001   0.000000   0.000000   0.000000
     3  H    0.000000   0.000000  -0.000001   0.000000   0.000000   0.000000
     4  H    0.000000   0.000000   0.000000   0.000000   0.000000   0.000000
     5  N    0.000000   0.004214   0.347531   0.000000  -0.083820   0.000000
     6  C    0.000000   0.000274  -0.067793   0.000000  -0.000714   0.000000
     7  C    0.000000   0.000005   0.002806   0.000000   0.000102   0.000000
     8  C    0.000000  -0.000042  -0.059635   0.000000   0.000111   0.000000
     9  C    0.000000   0.000002   0.000982   0.000000  -0.000180   0.000000
    10  N    0.000000   0.000000  -0.000435   0.000000  -0.000001   0.000000
    11  C   -0.000009   0.000011   0.001044  -0.087072  -0.000057   0.000000
    12  H    0.000000  -0.000005   0.000639   0.004618  -0.000001   0.000000
    13  H    0.000000   0.000000   0.000007  -0.001748   0.000001   0.000000
    14  O   -0.000001  -0.000239  -0.053394  -0.000793   0.002171   0.000000
    15  O    0.638353   0.003988  -0.000005   0.000000   0.000463  -0.004051
    16  O    0.004002   0.000000   0.000000   0.000000   0.000000   0.233069
    17  O    0.002540   0.000000   0.000000   0.000000   0.000000   0.509799
    18  N   -0.032798   0.004854   0.003978  -0.071891  -0.000343   0.003474
    19  C    0.005193  -0.041833   0.193371   0.000317  -0.025476  -0.000002
    20  C   -0.014523  -0.054860  -0.023422   0.002187  -0.046521  -0.000527
    21  C    0.002097   0.219129  -0.043016  -0.000062  -0.001398   0.004382
    22  C    0.000174  -0.000072  -0.000617   0.249398  -0.000002  -0.000044
    23  C   -0.027372  -0.000993  -0.000058  -0.000700   0.000003  -0.091607
    24  C   -0.038724   0.011007  -0.000026   0.000026   0.000044   0.104271
    25  C    5.114396  -0.070005  -0.000939  -0.000007   0.007868  -0.040728
    26  C   -0.070005   5.769247  -0.093351   0.000003   0.145128   0.000035
    27  C   -0.000939  -0.093351   5.546109  -0.000026   0.091740   0.000000
    28  C   -0.000007   0.000003  -0.000026   5.391254  -0.000001   0.000002
    29  C    0.007868   0.145128   0.091740  -0.000001   5.315995   0.000000
    30  C   -0.040728   0.000035   0.000000   0.000002   0.000000   4.629500
    31  H   -0.000007   0.000001   0.000011  -0.050899   0.000000  -0.000002
    32  H    0.003008   0.000002   0.000000  -0.000020   0.000000   0.000943
    33  H   -0.000652   0.377463   0.005497   0.000000  -0.038918   0.000003
    34  H    0.000000   0.000000   0.000001   0.345159   0.000000   0.000000
    35  H   -0.000001   0.000000   0.000000   0.364764   0.000000  -0.000001
    36  H   -0.000002   0.000003  -0.000008   0.364310  -0.000002   0.000000
    37  H   -0.000141   0.000000   0.000000   0.000000   0.000000  -0.021495
    38  F   -0.000003  -0.062197  -0.064512   0.000000   0.333758   0.000000
    39  H    0.000000   0.000000   0.000000   0.000000   0.000003   0.000000
    40  H    0.000000   0.000000  -0.000082   0.000000   0.000001   0.000000
    41  H    0.000000  -0.000004   0.001678   0.000000   0.000478   0.000000
    42  H    0.000000   0.000002  -0.005555   0.000000  -0.000058   0.000000
    43  H    0.000000   0.000000  -0.000056   0.000000   0.000002   0.000000
    44  H    0.000000   0.000000  -0.000102   0.000000  -0.000001   0.000000
    45  H    0.000000   0.000042  -0.002436   0.000000  -0.001004   0.000000
    46  H    0.000000  -0.000003  -0.001418   0.000000   0.001910   0.000000
              31         32         33         34         35         36
     1  C    0.000000   0.000000   0.000000   0.000000   0.000000   0.000000
     2  H    0.000000   0.000000   0.000000   0.000000   0.000000   0.000000
     3  H    0.000000   0.000000   0.000000   0.000000   0.000000   0.000000
     4  H    0.000000   0.000000   0.000000   0.000000   0.000000   0.000000
     5  N    0.000000   0.000000  -0.000012   0.000000   0.000000   0.000000
     6  C    0.000000   0.000000   0.000001   0.000000   0.000000   0.000001
     7  C    0.000000   0.000000   0.000000   0.000000   0.000000   0.000000
     8  C    0.000000   0.000000   0.000001   0.000000   0.000000   0.000000
     9  C    0.000000   0.000000   0.000000   0.000000   0.000000   0.000000
    10  N    0.000000   0.000000   0.000000   0.000000   0.000000   0.000000
    11  C   -0.026829   0.000051   0.000000   0.000112   0.003762  -0.002836
    12  H    0.000476  -0.000005   0.000000  -0.000032  -0.000071   0.000139
    13  H   -0.000129   0.000000   0.000000   0.002505  -0.000006  -0.000300
    14  O    0.001548   0.000000   0.000000  -0.000015   0.000021   0.005230
[...]
    42  H    0.000694   0.000214  -0.000014   0.000086   0.000000   0.000000
    43  H   -0.000001   0.000000   0.000000   0.000000   0.000000   0.000000
    44  H    0.000004   0.000000   0.000000   0.000000   0.000000   0.000000
    45  H    0.001005  -0.000002  -0.000011   0.000000   0.000000   0.000000
    46  H   -0.000198   0.000004  -0.000002   0.000000   0.000000   0.000000
              25         26         27         28         29         30
     1  C    0.000000   0.000000  -0.000005   0.000000   0.000000   0.000000
     2  H    0.000000   0.000000   0.000000   0.000000   0.000000   0.000000
     3  H    0.000000   0.000000   0.000000   0.000000   0.000000   0.000000
     4  H    0.000000   0.000000   0.000000   0.000000   0.000000   0.000000
     5  N   -0.000001   0.004630   0.296293   0.000001  -0.081280   0.000000
     6  C    0.000000   0.000582  -0.065358   0.000000  -0.001096   0.000000
     7  C    0.000000   0.000008   0.002768   0.000000   0.000464   0.000000
     8  C    0.000000  -0.000080  -0.053217  -0.000001   0.000816   0.000000
     9  C    0.000000   0.000002   0.001023  -0.000003  -0.000137   0.000000
    10  N    0.000000   0.000000   0.000140   0.000000  -0.000016   0.000000
    11  C   -0.000004   0.000019   0.000987  -0.087042  -0.000095   0.000001
    12  H    0.000000  -0.000006   0.000757   0.004167   0.000000   0.000000
    13  H    0.000000   0.000000  -0.000026  -0.000402   0.000002   0.000000
    14  O    0.000001  -0.000258  -0.056082  -0.004175   0.002296   0.000000
    15  O    0.638181   0.003782  -0.000005   0.000000   0.000664  -0.004146
    16  O    0.002088   0.000000   0.000000   0.000000   0.000000   0.222800
    17  O    0.001949   0.000000   0.000000   0.000000   0.000000   0.517509
    18  N   -0.036670   0.006040   0.004624  -0.061724  -0.000483   0.004871
    19  C    0.006145  -0.055015   0.179866   0.000137   0.009922  -0.000004
    20  C    0.005154  -0.058027  -0.005598   0.002456  -0.054511  -0.000615
    21  C   -0.028039   0.220916  -0.047848  -0.000107  -0.013825   0.005959
    22  C    0.000049  -0.000087  -0.000527   0.256397   0.000003  -0.000045
    23  C   -0.023167  -0.001269  -0.000084  -0.000405   0.000014  -0.097784
    24  C   -0.062532   0.015253  -0.000009   0.000016   0.000021   0.063156
    25  C    5.193062  -0.075401  -0.000997  -0.000004   0.009468  -0.037602
    26  C   -0.075401   5.731915  -0.073000   0.000004   0.173381   0.000004
    27  C   -0.000997  -0.073000   5.420353  -0.000035   0.130841   0.000000
    28  C   -0.000004   0.000004  -0.000035   5.385234  -0.000001   0.000002
    29  C    0.009468   0.173381   0.130841  -0.000001   5.262692   0.000000
    30  C   -0.037602   0.000004   0.000000   0.000002   0.000000   4.691905
    31  H   -0.000009   0.000001   0.000011  -0.042281   0.000000  -0.000008
    32  H    0.002780   0.000000   0.000000   0.000016   0.000000   0.000682
    33  H    0.000336   0.372634   0.005071   0.000000  -0.035800   0.000004
    34  H    0.000000   0.000000   0.000001   0.349988   0.000000   0.000000
    35  H   -0.000001   0.000000   0.000000   0.365378   0.000000   0.000000
    36  H   -0.000002   0.000004   0.000004   0.361940  -0.000004   0.000000
    37  H   -0.000057   0.000000   0.000000   0.000000   0.000000  -0.028774
    38  F   -0.000004  -0.060443  -0.057433   0.000000   0.303043   0.000000
    39  H    0.000000   0.000000   0.000062   0.000009  -0.000001   0.000000
    40  H    0.000000   0.000000  -0.000025   0.000000   0.000001   0.000000
    41  H    0.000000   0.000000   0.002331   0.000000   0.000044   0.000000
    42  H    0.000000   0.000005  -0.006684   0.000001   0.000126   0.000000
    43  H    0.000000   0.000000  -0.000062   0.000000  -0.000002   0.000000
    44  H    0.000000   0.000000  -0.000034   0.000000  -0.000008   0.000000
    45  H    0.000000  -0.000148  -0.001242   0.000000  -0.000216   0.000000
    46  H    0.000000   0.000024  -0.001055   0.000000   0.000823   0.000000
              31         32         33         34         35         36
     1  C    0.000000   0.000000   0.000000   0.000000   0.000000   0.000000
     2  H    0.000000   0.000000   0.000000   0.000000   0.000000   0.000000
     3  H    0.000000   0.000000   0.000000   0.000000   0.000000   0.000000
     4  H    0.000000   0.000000   0.000000   0.000000   0.000000   0.000000
     5  N    0.000000   0.000000  -0.000008   0.000000   0.000000   0.000001
     6  C    0.000000   0.000000  -0.000001   0.000000   0.000000   0.000000
     7  C    0.000000   0.000000   0.000000   0.000000   0.000000   0.000000
     8  C    0.000000   0.000000   0.000000   0.000000   0.000000   0.000001
     9  C    0.000000   0.000000   0.000000   0.000000   0.000000  -0.000011
    10  N    0.000000   0.000000   0.000000   0.000000   0.000000   0.000000
    11  C   -0.028312   0.000085   0.000000   0.001056   0.003748  -0.004608
    12  H    0.000911  -0.000004   0.000000  -0.000051  -0.000057   0.000306
    13  H   -0.000584  -0.000001   0.000000   0.001910  -0.000032  -0.000488
    14  O    0.001546   0.000000   0.000000  -0.000002   0.000087   0.011772
    15  O    0.000000  -0.000002   0.016002   0.000000   0.000000   0.000000
    16  O    0.000000   0.000282   0.000000   0.000000   0.000000   0.000000
    17  O   -0.000002   0.022649   0.000000   0.000000   0.000000   0.000000
    18  N   -0.034713  -0.034009  -0.000008   0.002821  -0.000910  -0.000946
    19  C    0.000497  -0.000070  -0.000604   0.000011  -0.000097   0.000828
    20  C    0.002649   0.003040   0.004393  -0.000057  -0.000183   0.000100
    21  C   -0.000030  -0.000500  -0.057083   0.000000   0.000007  -0.000007
    22  C    0.359238  -0.001468   0.000001  -0.038423  -0.036515  -0.042862
    23  C   -0.001089   0.364245  -0.000059  -0.000003   0.002389  -0.000075
    24  C    0.000269  -0.058999   0.001335  -0.000001  -0.000060   0.000008
    25  C   -0.000009   0.002780   0.000336   0.000000  -0.000001  -0.000002
    26  C    0.000001   0.000000   0.372634   0.000000   0.000000   0.000004
    27  C    0.000011   0.000000   0.005071   0.000001   0.000000   0.000004
    28  C   -0.042281   0.000016   0.000000   0.349988   0.365378   0.361940
    29  C    0.000000   0.000000  -0.035800   0.000000   0.000000  -0.000004
    30  C   -0.000008   0.000682   0.000004   0.000000   0.000000   0.000000
    31  H    0.509554   0.002670   0.000000  -0.000973  -0.001271   0.003317
    32  H    0.002670   0.444951   0.000000  -0.000009   0.000357   0.000000
    33  H    0.000000   0.000000   0.458722   0.000000   0.000000   0.000000
    34  H   -0.000973  -0.000009   0.000000   0.535626  -0.023508  -0.023348
    35  H   -0.001271   0.000357   0.000000  -0.023508   0.498644  -0.021525
    36  H    0.003317   0.000000   0.000000  -0.023348  -0.021525   0.484065
    37  H    0.000000  -0.000016   0.000000   0.000000   0.000000   0.000000
    38  F    0.000000   0.000000  -0.001954   0.000000   0.000000   0.000000
    39  H    0.000000   0.000000   0.000000   0.000000   0.000000   0.000188
    40  H    0.000000   0.000000   0.000000   0.000000   0.000000   0.000000
    41  H    0.000000   0.000000   0.000000   0.000000   0.000000   0.000000
    42  H   -0.000001   0.000000   0.000000   0.000000   0.000000  -0.000006
    43  H    0.000000   0.000000   0.000000   0.000000   0.000000   0.000000
    44  H    0.000000   0.000000   0.000000   0.000000   0.000000   0.000000
    45  H    0.000000   0.000000   0.000001   0.000000   0.000000   0.000000
    46  H    0.000000   0.000000   0.000001   0.000000   0.000000   0.000000
              37         38         39         40         41         42
     1  C    0.000000   0.000000   0.000097  -0.006439  -0.000061  -0.000057
     2  H    0.000000   0.000000   0.003215  -0.002214   0.000004  -0.000001
     3  H    0.000000   0.000000  -0.001014   0.012973   0.000004  -0.000002
     4  H    0.000000   0.000000   0.000014  -0.000150   0.000002   0.000001
     5  N    0.000000  -0.004180   0.000742   0.003169  -0.042164  -0.024604
     6  C    0.000000   0.011354   0.000020  -0.000207  -0.003336   0.002642
     7  C    0.000000   0.000249   0.004152  -0.002220  -0.000382   0.000297
     8  C    0.000000  -0.000030  -0.037003  -0.042673   0.363344   0.365113
     9  C    0.000000   0.000000   0.349397   0.308980  -0.062822  -0.036004
    10  N    0.000000   0.000000  -0.039578  -0.047411  -0.000408   0.001792
    11  C    0.000000   0.000000  -0.000465  -0.000011  -0.000011   0.000792
    12  H    0.000000   0.000000   0.000062   0.000001   0.000002  -0.000272
    13  H    0.000000   0.000000  -0.000139  -0.000004   0.000000  -0.000081
    14  O    0.000000   0.000000   0.016529   0.000079   0.000272   0.017095
    15  O    0.000208   0.000000   0.000000   0.000000   0.000000   0.000000
    16  O    0.236955   0.000000   0.000000   0.000000   0.000000   0.000000
    17  O    0.004461   0.000000   0.000000   0.000000   0.000000   0.000000
    18  N    0.000000   0.000000   0.000000   0.000000   0.000000   0.000001
    19  C    0.000000   0.002621  -0.000432   0.000000   0.000096   0.000694
    20  C    0.000000  -0.000230   0.000075   0.000000   0.000008   0.000214
    21  C    0.000005   0.002930  -0.000001   0.000000   0.000000  -0.000014
    22  C    0.000000   0.000000   0.000002   0.000000   0.000000   0.000086
    23  C   -0.000292   0.000000   0.000000   0.000000   0.000000   0.000000
    24  C    0.011857   0.000000   0.000000   0.000000   0.000000   0.000000
    25  C   -0.000057  -0.000004   0.000000   0.000000   0.000000   0.000000
    26  C    0.000000  -0.060443   0.000000   0.000000   0.000000   0.000005
    27  C    0.000000  -0.057433   0.000062  -0.000025   0.002331  -0.006684
    28  C    0.000000   0.000000   0.000009   0.000000   0.000000   0.000001
    29  C    0.000000   0.303043  -0.000001   0.000001   0.000044   0.000126
    30  C   -0.028774   0.000000   0.000000   0.000000   0.000000   0.000000
    31  H    0.000000   0.000000   0.000000   0.000000   0.000000  -0.000001
    32  H   -0.000016   0.000000   0.000000   0.000000   0.000000   0.000000
    33  H    0.000000  -0.001954   0.000000   0.000000   0.000000   0.000000
    34  H    0.000000   0.000000   0.000000   0.000000   0.000000   0.000000
    35  H    0.000000   0.000000   0.000000   0.000000   0.000000   0.000000
    36  H    0.000000   0.000000   0.000188   0.000000   0.000000  -0.000006
    37  H    0.416791   0.000000   0.000000   0.000000   0.000000   0.000000
    38  F    0.000000   9.091436   0.000000   0.000000  -0.000001   0.000000
    39  H    0.000000   0.000000   0.531614  -0.040739   0.003856  -0.003764
    40  H    0.000000   0.000000  -0.040739   0.655294   0.000154   0.001051
    41  H    0.000000  -0.000001   0.003856   0.000154   0.552809  -0.023633
    42  H    0.000000   0.000000  -0.003764   0.001051  -0.023633   0.484998
    43  H    0.000000   0.000000  -0.000047  -0.000179   0.000033  -0.000002
    44  H    0.000000  -0.000001  -0.000358   0.005454   0.001644  -0.000056
    45  H    0.000000   0.000215  -0.000029   0.000006  -0.000112  -0.000082
    46  H    0.000000   0.004521  -0.000003   0.000063   0.002199  -0.000061
              43         44         45         46
     1  C   -0.003183  -0.000969  -0.000001  -0.000066
     2  H    0.000142  -0.000278  -0.000006   0.000000
     3  H   -0.001099   0.006288   0.000012   0.000009
     4  H    0.005437  -0.000736  -0.000036  -0.000004
     5  N    0.002169  -0.000327  -0.036852  -0.041196
     6  C   -0.030313  -0.060545   0.363769   0.347292
     7  C    0.370551   0.330370  -0.034342  -0.048102
     8  C    0.000316  -0.002413   0.003003   0.000233
     9  C    0.003923  -0.003103   0.000401  -0.000470
    10  N   -0.030737  -0.046738   0.002399   0.002467
    11  C    0.000000   0.000000   0.000000   0.000000
    12  H    0.000000   0.000000   0.000000   0.000000
    13  H    0.000000   0.000000   0.000000   0.000000
    14  O    0.000000   0.000000  -0.000001   0.000000
    15  O    0.000000   0.000000   0.000000   0.000000
    16  O    0.000000   0.000000   0.000000   0.000000
    17  O    0.000000   0.000000   0.000000   0.000000
    18  N    0.000000   0.000000   0.000000   0.000000
    19  C   -0.000001   0.000004   0.001005  -0.000198
    20  C    0.000000   0.000000  -0.000002   0.000004
    21  C    0.000000   0.000000  -0.000011  -0.000002
    22  C    0.000000   0.000000   0.000000   0.000000
    23  C    0.000000   0.000000   0.000000   0.000000
    24  C    0.000000   0.000000   0.000000   0.000000
    25  C    0.000000   0.000000   0.000000   0.000000
    26  C    0.000000   0.000000  -0.000148   0.000024
    27  C   -0.000062  -0.000034  -0.001242  -0.001055
    28  C    0.000000   0.000000   0.000000   0.000000
    29  C   -0.000002  -0.000008  -0.000216   0.000823
    30  C    0.000000   0.000000   0.000000   0.000000
    31  H    0.000000   0.000000   0.000000   0.000000
    32  H    0.000000   0.000000   0.000000   0.000000
    33  H    0.000000   0.000000   0.000001   0.000001
    34  H    0.000000   0.000000   0.000000   0.000000
    35  H    0.000000   0.000000   0.000000   0.000000
    36  H    0.000000   0.000000   0.000000   0.000000
    37  H    0.000000   0.000000   0.000000   0.000000
    38  F    0.000000  -0.000001   0.000215   0.004521
    39  H   -0.000047  -0.000358  -0.000029  -0.000003
    40  H   -0.000179   0.005454   0.000006   0.000063
    41  H    0.000033   0.001644  -0.000112   0.002199
    42  H   -0.000002  -0.000056  -0.000082  -0.000061
    43  H    0.518738  -0.038066  -0.005765   0.001190
    44  H   -0.038066   0.635113   0.003978   0.001432
    45  H   -0.005765   0.003978   0.521252  -0.035290
    46  H    0.001190   0.001432  -0.035290   0.565355
 Mulliken charges:
               1
     1  C   -0.378054
     2  H    0.196646
     3  H    0.158638
     4  H    0.194371
     5  N   -0.694997
     6  C   -0.166847
     7  C   -0.234295
     8  C   -0.223772
     9  C   -0.183010
    10  N   -0.500349
    11  C   -0.137933
    12  H    0.223730
    13  H    0.226329
    14  O   -0.540118
    15  O   -0.497743
    16  O   -0.540007
    17  O   -0.521252
    18  N   -0.823314
    19  C    0.288355
    20  C    0.360604
    21  C   -0.073028
    22  C   -0.102236
    23  C    0.214308
    24  C   -0.211336
    25  C    0.405277
    26  C   -0.205471
    27  C    0.324191
    28  C   -0.529566
    29  C    0.292854
    30  C    0.662083
    31  H    0.228611
    32  H    0.253320
    33  H    0.237015
    34  H    0.194963
    35  H    0.213548
    36  H    0.231347
    37  H    0.358861
    38  F   -0.292093
    39  H    0.213542
    40  H    0.155048
    41  H    0.206133
    42  H    0.220414
    43  H    0.206955
    44  H    0.169350
    45  H    0.218094
    46  H    0.200835
 Sum of Mulliken charges =   0.00000
 Mulliken charges with hydrogens summed into heavy atoms:
               1
     1  C    0.171600
     5  N   -0.694997
     6  C    0.252081
     7  C    0.142010
     8  C    0.202775
     9  C    0.185579
    10  N   -0.500349
    11  C    0.312126
    14  O   -0.540118
    15  O   -0.497743
    16  O   -0.181146
    17  O   -0.521252
    18  N   -0.823314
    19  C    0.288355
    20  C    0.360604
    21  C   -0.073028
    22  C    0.126376
    23  C    0.467629
    24  C   -0.211336
    25  C    0.405277
    26  C    0.031544
    27  C    0.324191
    28  C    0.110292
    29  C    0.292854
    30  C    0.662083
    38  F   -0.292093
 Electronic spatial extent (au):  <R**2>=          10519.1281
 Charge=              0.0000 electrons
 Dipole moment (field-independent basis, Debye):
    X=              5.1531    Y=             -5.9265    Z=              1.3535  Tot=              7.9693
 Quadrupole moment (field-independent basis, Debye-Ang):
   XX=           -151.3162   YY=           -147.9111   ZZ=           -148.0964
   XY=              6.9433   XZ=             -1.0575   YZ=             -3.8412
 Traceless Quadrupole moment (field-independent basis, Debye-Ang):
   XX=             -2.2083   YY=              1.1968   ZZ=              1.0115
   XY=              6.9433   XZ=             -1.0575   YZ=             -3.8412
 Octapole moment (field-independent basis, Debye-Ang**2):
  XXX=             58.7996  YYY=            -52.7482  ZZZ=             -0.3720  XYY=             30.2984
  XXY=             32.3527  XXZ=            -15.0874  XZZ=             -1.6161  YZZ=             -2.0591
  YYZ=              6.4752  XYZ=             -4.7575
 Hexadecapole moment (field-independent basis, Debye-Ang**3):
 XXXX=          -9372.3724 YYYY=          -2583.0407 ZZZZ=           -586.2518 XXXY=           -269.3393
 XXXZ=             19.6977 YYYX=             83.4732 YYYZ=            -27.0653 ZZZX=             16.1207
 ZZZY=            -15.6578 XXYY=          -2308.6976 XXZZ=          -1731.6328 YYZZ=           -524.8546
 XXYZ=            -20.0470 YYXZ=            -29.4628 ZZXY=              2.7564
 N-N= 2.441057944755D+03 E-N=-7.812457760919D+03  KE= 1.245597145899D+03
 1\1\GINC-NODE045\FOpt\RB3LYP\3-21G\C18H20F1N3O4\SUPERCOMPUTO1\06-Jul-2
 020\0\\# opt b3lyp/3-21g geom=connectivity\\Title Card Required\\0,1\C
 ,12.0906134647,4.5151828739,3.4347443577\H,11.544992709,3.9028654789,4
 .1616377755\H,13.1657550189,4.2599017596,3.5119399528\H,11.7411870252,
 4.2493749045,2.4315922546\N,11.3634509081,8.5428532346,4.2403595064\C,
 11.5454410602,8.2031525559,2.7984174509\C,12.319843697,6.8675654724,2.
 6783934227\C,12.3344446915,7.8828816204,5.1274839329\C,12.1617339864,6
 .3472928988,5.0740559999\N,11.8024076382,5.9327023335,3.6921946161\C,9
 .7174271924,8.1156987672,8.1502363357\H,10.1586104394,9.0488141067,8.5
 181750999\H,10.1335057271,7.2582709348,8.6794251932\O,10.0679735306,7.
 9128130978,6.7359895711\O,6.2149176785,12.2730980078,4.9961262677\O,4.
 3075510668,12.6114587811,6.9130437118\O,4.3813576353,11.261124049,8.75
 09484054\N,7.7279214642,9.3142850423,7.461731889\C,9.5577373236,8.9217
 134673,5.8916295526\C,8.3944026741,9.6195469434,6.2604294443\C,7.86132
 37873,10.6158310003,5.4286162109\C,8.1911589929,8.1590436745,8.2806273
 143\C,6.6137852746,10.0071060608,7.8054935662\C,6.059622011,11.0095485
 051,7.0573292187\C,6.6433707649,11.3954095422,5.7705271882\C,8.5082290
 656,10.8900361273,4.2219846608\C,10.2235348238,9.1908319587,4.67570216
 84\C,7.552222589,6.8478874163,7.7925035259\C,9.6405304997,10.206331441
 9,3.8705711887\C,4.8637741341,11.6086735694,7.6646607192\H,7.917253756
 5,8.3670222417,9.3195769532\H,6.1358198443,9.7430142749,8.7424274474\H
 ,8.1024231155,11.6671785768,3.5891700073\H,7.8290220605,6.0273780696,8
 .4637345558\H,6.4625749601,6.9358802012,7.773278473\H,7.9171915372,6.6
 206234531,6.7883988607\H,3.5098520675,12.9444487851,7.4105907567\F,10.
 2772137648,10.5203904172,2.6886149012\H,11.3538262189,6.0603524117,5.7
 524926045\H,13.1064258175,5.8790535719,5.4108695204\H,13.338708144,8.1
 595449888,4.7848228098\H,12.2062723658,8.2376357369,6.1456092242\H,12.
 124930306,6.4482720861,1.6857428705\H,13.4100607571,7.0371770572,2.755
 3075142\H,10.5570408025,8.073678322,2.3539931235\H,12.0728976072,8.997
 3941788,2.2614798759\\Version=ES64L-G09RevD.01\State=1-A\HF=-1256.0227
 422\RMSD=8.102e-09\RMSF=8.514e-06\Dipole=1.7933473,-2.2525381,1.241175
 5\Quadrupole=-1.2384825,-4.8999145,6.138397,2.0027549,-0.9964004,0.912
 7302\PG=C01 [X(C18H20F1N3O4)]\\@


 IT IS A PROFOUNDLY ERRONEOUS TRUISM ... THAT WE SHOULD CULTIVATE
 THE HABIT OF THINKING OF WHAT WE ARE DOING.
 THE PRECISE OPPOSITE IS THE CASE.
 CIVILIZATION ADVANCES BY EXTENDING THE NUMBER OF IMPORTANT OPERATIONS
 WHICH WE CAN PERFORM WITHOUT THINKING ABOUT THEM.

                                    -- ALFRED NORTH WHITEHEAD
 Job cpu time:       0 days  1 hours 27 minutes 60.0 seconds.
 File lengths (MBytes):  RWF=     50 Int=      0 D2E=      0 Chk=      8 Scr=      1
 Normal termination of Gaussian 09 at Mon Jul  6 12:29:31 2020.
