 Entering Gaussian System, Link 0=g09
 Input=acpiromidico.gjf
 Output=acpiromidico.log
 Initial command:
 /usr/local/cluster_programs/g09/l1.exe "/tmp/scratch/63920.prometeo/Gau-14763.inp" -scrdir="/tmp/scratch/63920.prometeo/"
 Entering Link 1 = /usr/local/cluster_programs/g09/l1.exe PID=     14764.
  
 Copyright (c) 1988,1990,1992,1993,1995,1998,2003,2009,2013,
            Gaussian, Inc.  All Rights Reserved.
  
 This is part of the Gaussian(R) 09 program.  It is based on
 the Gaussian(R) 03 system (copyright 2003, Gaussian, Inc.),
 the Gaussian(R) 98 system (copyright 1998, Gaussian, Inc.),
 the Gaussian(R) 94 system (copyright 1995, Gaussian, Inc.),
 the Gaussian 92(TM) system (copyright 1992, Gaussian, Inc.),
 the Gaussian 90(TM) system (copyright 1990, Gaussian, Inc.),
 the Gaussian 88(TM) system (copyright 1988, Gaussian, Inc.),
 the Gaussian 86(TM) system (copyright 1986, Carnegie Mellon
 University), and the Gaussian 82(TM) system (copyright 1983,
 Carnegie Mellon University). Gaussian is a federally registered
 trademark of Gaussian, Inc.
  
 This software contains proprietary and confidential information,
 including trade secrets, belonging to Gaussian, Inc.
  
 This software is provided under written license and may be
 used, copied, transmitted, or stored only in accord with that
 written license.
  
 The following legend is applicable only to US Government
 contracts under FAR:
  
                    RESTRICTED RIGHTS LEGEND
  
 Use, reproduction and disclosure by the US Government is
 subject to restrictions as set forth in subparagraphs (a)
 and (c) of the Commercial Computer Software - Restricted
 Rights clause in FAR 52.227-19.
  
 Gaussian, Inc.
 340 Quinnipiac St., Bldg. 40, Wallingford CT 06492
  
  
 ---------------------------------------------------------------
 Warning -- This program may not be used in any manner that
 competes with the business of Gaussian, Inc. or will provide
 assistance to any competitor of Gaussian, Inc.  The licensee
 of this program is prohibited from giving any competitor of
 Gaussian, Inc. access to this program.  By using this program,
 the user acknowledges that Gaussian, Inc. is engaged in the
 business of creating and licensing software in the field of
 computational chemistry and represents and warrants to the
 licensee that it is not a competitor of Gaussian, Inc. and that
 it will not use this program in any manner prohibited above.
 ---------------------------------------------------------------
  

 Cite this work as:
 Gaussian 09, Revision D.01,
 M. J. Frisch, G. W. Trucks, H. B. Schlegel, G. E. Scuseria, 
 M. A. Robb, J. R. Cheeseman, G. Scalmani, V. Barone, B. Mennucci, 
 G. A. Petersson, H. Nakatsuji, M. Caricato, X. Li, H. P. Hratchian, 
 A. F. Izmaylov, J. Bloino, G. Zheng, J. L. Sonnenberg, M. Hada, 
 M. Ehara, K. Toyota, R. Fukuda, J. Hasegawa, M. Ishida, T. Nakajima, 
 Y. Honda, O. Kitao, H. Nakai, T. Vreven, J. A. Montgomery, Jr., 
 J. E. Peralta, F. Ogliaro, M. Bearpark, J. J. Heyd, E. Brothers, 
 K. N. Kudin, V. N. Staroverov, T. Keith, R. Kobayashi, J. Normand, 
 K. Raghavachari, A. Rendell, J. C. Burant, S. S. Iyengar, J. Tomasi, 
 M. Cossi, N. Rega, J. M. Millam, M. Klene, J. E. Knox, J. B. Cross, 
 V. Bakken, C. Adamo, J. Jaramillo, R. Gomperts, R. E. Stratmann, 
 O. Yazyev, A. J. Austin, R. Cammi, C. Pomelli, J. W. Ochterski, 
 R. L. Martin, K. Morokuma, V. G. Zakrzewski, G. A. Voth, 
 P. Salvador, J. J. Dannenberg, S. Dapprich, A. D. Daniels, 
 O. Farkas, J. B. Foresman, J. V. Ortiz, J. Cioslowski, 
 and D. J. Fox, Gaussian, Inc., Wallingford CT, 2013.
 
 ******************************************
 Gaussian 09:  ES64L-G09RevD.01 24-Apr-2013
                 6-Jul-2020 
 ******************************************
 %nprocshared=20
 Will use up to   20 processors via shared memory.
 -----------------------------------
 # opt b3lyp/3-21g geom=connectivity
 -----------------------------------
 1/14=-1,18=20,19=15,26=3,38=1,57=2/1,3;
 2/9=110,12=2,17=6,18=5,40=1/2;
 3/5=5,11=2,16=1,25=1,30=1,71=1,74=-5/1,2,3;
 4//1;
 5/5=2,38=5/2;
 6/7=2,8=2,9=2,10=2,28=1/1;
 7//1,2,3,16;
 1/14=-1,18=20,19=15,26=3/3(2);
 2/9=110/2;
 99//99;
 2/9=110/2;
 3/5=5,11=2,16=1,25=1,30=1,71=1,74=-5/1,2,3;
 4/5=5,16=3,69=1/1;
 5/5=2,38=5/2;
 7//1,2,3,16;
 1/14=-1,18=20,19=15,26=3/3(-5);
 2/9=110/2;
 6/7=2,8=2,9=2,10=2,19=2,28=1/1;
 99/9=1/99;
 -------------------
 Title Card Required
 -------------------
 Symbolic Z-matrix:
 Charge =  0 Multiplicity = 1
 O(PDBName=O1,ResName=MOL,ResNum=1) 0    -5.079     4.342    -6.88     L 
 O(PDBName=O2,ResName=MOL,ResNum=1) 0    -2.619     5.45     -6.266    L 
 O(PDBName=O3,ResName=MOL,ResNum=1) 0    -2.483     7.708    -6.353    L 
 N(PDBName=N4,ResName=MOL,ResNum=1) 0    -10.929    6.557    -6.532    L 
 N(PDBName=N5,ResName=MOL,ResNum=1) 0    -6.569     8.161    -6.302    L 
 N(PDBName=N6,ResName=MOL,ResNum=1) 0    -8.766     7.373    -6.421    L 
 N(PDBName=N7,ResName=MOL,ResNum=1) 0    -9.216     5.011    -6.77     L 
 C(PDBName=C8,ResName=MOL,ResNum=1) 0    -12.98     7.693    -6.677    L 
 C(PDBName=C9,ResName=MOL,ResNum=1) 0    -13.244    6.235    -6.282    L 
 C(PDBName=C10,ResName=MOL,ResNum=1) 0    -11.503    7.89     -6.332    L 
 C(PDBName=C11,ResName=MOL,ResNum=1) 0    -11.951    5.512    -6.667    L 
 C(PDBName=C12,ResName=MOL,ResNum=1) 0    -9.6       6.313    -6.575    L 
 C(PDBName=C13,ResName=MOL,ResNum=1) 0    -7.456     7.097    -6.461    L 
 C(PDBName=C14,ResName=MOL,ResNum=1) 0    -6.936     5.802    -6.645    L 
 C(PDBName=C15,ResName=MOL,ResNum=1) 0    -7.07      9.535    -6.123    L 
 C(PDBName=C16,ResName=MOL,ResNum=1) 0    -7.904     4.794    -6.795    L 
 C(PDBName=C17,ResName=MOL,ResNum=1) 0    -5.232     7.917    -6.312    L 
 C(PDBName=C18,ResName=MOL,ResNum=1) 0    -5.496     5.496    -6.675    L 
 C(PDBName=C19,ResName=MOL,ResNum=1) 0    -4.65      6.681    -6.458    L 
 C(PDBName=C20,ResName=MOL,ResNum=1) 0    -7.288     10.265   -7.44     L 
 C(PDBName=C21,ResName=MOL,ResNum=1) 0    -3.176     6.684    -6.368    L 
 H(PDBName=H22,ResName=MOL,ResNum=1) 0    -13.135    7.827    -7.758    L 
 H(PDBName=H23,ResName=MOL,ResNum=1) 0    -13.633    8.406    -6.159    L 
 H(PDBName=H24,ResName=MOL,ResNum=1) 0    -13.412    6.161    -5.197    L 
 H(PDBName=H25,ResName=MOL,ResNum=1) 0    -14.118    5.806    -6.789    L 
 H(PDBName=H26,ResName=MOL,ResNum=1) 0    -10.993    8.628    -6.966    L 
 H(PDBName=H27,ResName=MOL,ResNum=1) 0    -11.364    8.209    -5.284    L 
 H(PDBName=H28,ResName=MOL,ResNum=1) 0    -11.713    4.653    -6.026    L 
 H(PDBName=H29,ResName=MOL,ResNum=1) 0    -11.98     5.139    -7.705    L 
 H(PDBName=H30,ResName=MOL,ResNum=1) 0    -8.012     9.458    -5.567    L 
 H(PDBName=H31,ResName=MOL,ResNum=1) 0    -6.337     10.059   -5.495    L 
 H(PDBName=H32,ResName=MOL,ResNum=1) 0    -7.563     3.765    -6.94     L 
 H(PDBName=H33,ResName=MOL,ResNum=1) 0    -4.591     8.789    -6.176    L 
 H(PDBName=H34,ResName=MOL,ResNum=1) 0    -6.357     10.343   -8.018    L 
 H(PDBName=H35,ResName=MOL,ResNum=1) 0    -8.039     9.748    -8.051    L 
 H(PDBName=H36,ResName=MOL,ResNum=1) 0    -7.65      11.284   -7.242    L 
 H(PDBName=H37,ResName=MOL,ResNum=1) 0    -1.652     5.617    -6.181    L 
 
 Center=     -8.39718919      7.20021622     -6.56454054
 Residue   1 PDB Number     1_0 MOL charge    0.00000000 layers R        AvRTP=      0.00000000      0.00000000    180.00000000

 GradGradGradGradGradGradGradGradGradGradGradGradGradGradGradGradGradGrad
 Berny optimization.
 Initialization pass.
                           ----------------------------
                           !    Initial Parameters    !
                           ! (Angstroms and Degrees)  !
 --------------------------                            --------------------------
 ! Name  Definition              Value          Derivative Info.                !
 --------------------------------------------------------------------------------
 ! R1    R(1,18)                 1.244          estimate D2E/DX2                !
 ! R2    R(2,21)                 1.3577         estimate D2E/DX2                !
 ! R3    R(2,37)                 0.985          estimate D2E/DX2                !
 ! R4    R(3,21)                 1.2365         estimate D2E/DX2                !
 ! R5    R(4,10)                 1.465          estimate D2E/DX2                !
 ! R6    R(4,11)                 1.4679         estimate D2E/DX2                !
 ! R7    R(4,12)                 1.3519         estimate D2E/DX2                !
 ! R8    R(5,13)                 1.3943         estimate D2E/DX2                !
 ! R9    R(5,15)                 1.4734         estimate D2E/DX2                !
 ! R10   R(5,17)                 1.3591         estimate D2E/DX2                !
 ! R11   R(6,12)                 1.3575         estimate D2E/DX2                !
 ! R12   R(6,13)                 1.3394         estimate D2E/DX2                !
 ! R13   R(7,12)                 1.3714         estimate D2E/DX2                !
 ! R14   R(7,16)                 1.3301         estimate D2E/DX2                !
 ! R15   R(8,9)                  1.5335         estimate D2E/DX2                !
 ! R16   R(8,10)                 1.5295         estimate D2E/DX2                !
 ! R17   R(8,22)                 1.1002         estimate D2E/DX2                !
 ! R18   R(8,23)                 1.0969         estimate D2E/DX2                !
 ! R19   R(9,11)                 1.5306         estimate D2E/DX2                !
 ! R20   R(9,24)                 1.1004         estimate D2E/DX2                !
 ! R21   R(9,25)                 1.0977         estimate D2E/DX2                !
 ! R22   R(10,26)                1.0985         estimate D2E/DX2                !
 ! R23   R(10,27)                1.1043         estimate D2E/DX2                !
 ! R24   R(11,28)                1.0979         estimate D2E/DX2                !
 ! R25   R(11,29)                1.1034         estimate D2E/DX2                !
 ! R26   R(13,14)                1.4076         estimate D2E/DX2                !
 ! R27   R(14,16)                1.4056         estimate D2E/DX2                !
 ! R28   R(14,18)                1.4725         estimate D2E/DX2                !
 ! R29   R(15,20)                1.5215         estimate D2E/DX2                !
 ! R30   R(15,30)                1.0966         estimate D2E/DX2                !
 ! R31   R(15,31)                1.0983         estimate D2E/DX2                !
 ! R32   R(16,32)                1.0937         estimate D2E/DX2                !
 ! R33   R(17,19)                1.3739         estimate D2E/DX2                !
 ! R34   R(17,33)                1.0908         estimate D2E/DX2                !
 ! R35   R(18,19)                1.4721         estimate D2E/DX2                !
 ! R36   R(19,21)                1.4767         estimate D2E/DX2                !
 ! R37   R(20,34)                1.0986         estimate D2E/DX2                !
 ! R38   R(20,35)                1.0975         estimate D2E/DX2                !
 ! R39   R(20,36)                1.0994         estimate D2E/DX2                !
 ! A1    A(21,2,37)            104.782          estimate D2E/DX2                !
 ! A2    A(10,4,11)            112.7996         estimate D2E/DX2                !
 ! A3    A(10,4,12)            123.6227         estimate D2E/DX2                !
 ! A4    A(11,4,12)            123.5748         estimate D2E/DX2                !
 ! A5    A(13,5,15)            120.6075         estimate D2E/DX2                !
 ! A6    A(13,5,17)            119.2066         estimate D2E/DX2                !
 ! A7    A(15,5,17)            120.1858         estimate D2E/DX2                !
 ! A8    A(12,6,13)            115.8868         estimate D2E/DX2                !
 ! A9    A(12,7,16)            115.7075         estimate D2E/DX2                !
 ! A10   A(9,8,10)             103.3331         estimate D2E/DX2                !
 ! A11   A(9,8,22)             110.159          estimate D2E/DX2                !
 ! A12   A(9,8,23)             113.198          estimate D2E/DX2                !
 ! A13   A(10,8,22)            109.9972         estimate D2E/DX2                !
 ! A14   A(10,8,23)            112.6222         estimate D2E/DX2                !
 ! A15   A(22,8,23)            107.5152         estimate D2E/DX2                !
 ! A16   A(8,9,11)             103.821          estimate D2E/DX2                !
 ! A17   A(8,9,24)             110.133          estimate D2E/DX2                !
 ! A18   A(8,9,25)             112.9349         estimate D2E/DX2                !
 ! A19   A(11,9,24)            110.1946         estimate D2E/DX2                !
 ! A20   A(11,9,25)            111.8278         estimate D2E/DX2                !
 ! A21   A(24,9,25)            107.9124         estimate D2E/DX2                !
 ! A22   A(4,10,8)             103.3185         estimate D2E/DX2                !
 ! A23   A(4,10,26)            110.5231         estimate D2E/DX2                !
 ! A24   A(4,10,27)            110.065          estimate D2E/DX2                !
 ! A25   A(8,10,26)            113.8712         estimate D2E/DX2                !
 ! A26   A(8,10,27)            111.8907         estimate D2E/DX2                !
 ! A27   A(26,10,27)           107.1712         estimate D2E/DX2                !
 ! A28   A(4,11,9)             103.223          estimate D2E/DX2                !
 ! A29   A(4,11,28)            110.6322         estimate D2E/DX2                !
 ! A30   A(4,11,29)            110.2112         estimate D2E/DX2                !
 ! A31   A(9,11,28)            113.9437         estimate D2E/DX2                !
 ! A32   A(9,11,29)            111.9694         estimate D2E/DX2                !
 ! A33   A(28,11,29)           106.8851         estimate D2E/DX2                !
 ! A34   A(4,12,6)             117.349          estimate D2E/DX2                !
 ! A35   A(4,12,7)             116.8172         estimate D2E/DX2                !
 ! A36   A(6,12,7)             125.8337         estimate D2E/DX2                !
 ! A37   A(5,13,6)             117.4872         estimate D2E/DX2                !
 ! A38   A(5,13,14)            118.8131         estimate D2E/DX2                !
 ! A39   A(6,13,14)            123.6985         estimate D2E/DX2                !
 ! A40   A(13,14,16)           114.7918         estimate D2E/DX2                !
 ! A41   A(13,14,18)           123.7205         estimate D2E/DX2                !
 ! A42   A(16,14,18)           121.4869         estimate D2E/DX2                !
 ! A43   A(5,15,20)            113.0158         estimate D2E/DX2                !
 ! A44   A(5,15,30)            106.7515         estimate D2E/DX2                !
 ! A45   A(5,15,31)            106.7052         estimate D2E/DX2                !
 ! A46   A(20,15,30)           110.4569         estimate D2E/DX2                !
 ! A47   A(20,15,31)           111.2023         estimate D2E/DX2                !
 ! A48   A(30,15,31)           108.4761         estimate D2E/DX2                !
 ! A49   A(7,16,14)            124.0789         estimate D2E/DX2                !
 ! A50   A(7,16,32)            117.6164         estimate D2E/DX2                !
 ! A51   A(14,16,32)           118.3046         estimate D2E/DX2                !
 ! A52   A(5,17,19)            125.3793         estimate D2E/DX2                !
 ! A53   A(5,17,33)            115.7            estimate D2E/DX2                !
 ! A54   A(19,17,33)           118.9137         estimate D2E/DX2                !
 ! A55   A(1,18,14)            121.597          estimate D2E/DX2                !
 ! A56   A(1,18,19)            125.3363         estimate D2E/DX2                !
 ! A57   A(14,18,19)           113.0626         estimate D2E/DX2                !
 ! A58   A(17,19,18)           119.761          estimate D2E/DX2                !
 ! A59   A(17,19,21)           114.4881         estimate D2E/DX2                !
 ! A60   A(18,19,21)           125.7497         estimate D2E/DX2                !
 ! A61   A(15,20,34)           111.5958         estimate D2E/DX2                !
 ! A62   A(15,20,35)           110.7267         estimate D2E/DX2                !
 ! A63   A(15,20,36)           109.6335         estimate D2E/DX2                !
 ! A64   A(34,20,35)           108.6881         estimate D2E/DX2                !
 ! A65   A(34,20,36)           107.9383         estimate D2E/DX2                !
 ! A66   A(35,20,36)           108.1537         estimate D2E/DX2                !
 ! A67   A(2,21,3)             121.4547         estimate D2E/DX2                !
 ! A68   A(2,21,19)            114.344          estimate D2E/DX2                !
 ! A69   A(3,21,19)            124.1811         estimate D2E/DX2                !
 ! D1    D(37,2,21,3)            0.5326         estimate D2E/DX2                !
 ! D2    D(37,2,21,19)        -177.8986         estimate D2E/DX2                !
 ! D3    D(11,4,10,8)          -13.0109         estimate D2E/DX2                !
 ! D4    D(11,4,10,26)        -135.1969         estimate D2E/DX2                !
 ! D5    D(11,4,10,27)         106.617          estimate D2E/DX2                !
 ! D6    D(12,4,10,8)          167.5798         estimate D2E/DX2                !
 ! D7    D(12,4,10,26)          45.3939         estimate D2E/DX2                !
 ! D8    D(12,4,10,27)         -72.7922         estimate D2E/DX2                !
 ! D9    D(10,4,11,9)          -10.0218         estimate D2E/DX2                !
 ! D10   D(10,4,11,28)        -132.2934         estimate D2E/DX2                !
 ! D11   D(10,4,11,29)         109.7153         estimate D2E/DX2                !
 ! D12   D(12,4,11,9)          169.3878         estimate D2E/DX2                !
 ! D13   D(12,4,11,28)          47.1162         estimate D2E/DX2                !
 ! D14   D(12,4,11,29)         -70.8751         estimate D2E/DX2                !
 ! D15   D(10,4,12,6)            0.0798         estimate D2E/DX2                !
 ! D16   D(10,4,12,7)         -179.9734         estimate D2E/DX2                !
 ! D17   D(11,4,12,6)         -179.2665         estimate D2E/DX2                !
 ! D18   D(11,4,12,7)            0.6802         estimate D2E/DX2                !
 ! D19   D(15,5,13,6)           -1.1171         estimate D2E/DX2                !
 ! D20   D(15,5,13,14)         179.261          estimate D2E/DX2                !
 ! D21   D(17,5,13,6)          178.7952         estimate D2E/DX2                !
 ! D22   D(17,5,13,14)          -0.8267         estimate D2E/DX2                !
 ! D23   D(13,5,15,20)         -88.3507         estimate D2E/DX2                !
 ! D24   D(13,5,15,30)          33.2786         estimate D2E/DX2                !
 ! D25   D(13,5,15,31)         149.1192         estimate D2E/DX2                !
 ! D26   D(17,5,15,20)          91.7379         estimate D2E/DX2                !
 ! D27   D(17,5,15,30)        -146.6329         estimate D2E/DX2                !
 ! D28   D(17,5,15,31)         -30.7923         estimate D2E/DX2                !
 ! D29   D(13,5,17,19)          -0.5577         estimate D2E/DX2                !
 ! D30   D(13,5,17,33)        -179.586          estimate D2E/DX2                !
 ! D31   D(15,5,17,19)         179.355          estimate D2E/DX2                !
 ! D32   D(15,5,17,33)           0.3267         estimate D2E/DX2                !
 ! D33   D(13,6,12,4)          179.6388         estimate D2E/DX2                !
 ! D34   D(13,6,12,7)           -0.3025         estimate D2E/DX2                !
 ! D35   D(12,6,13,5)         -179.7976         estimate D2E/DX2                !
 ! D36   D(12,6,13,14)          -0.1957         estimate D2E/DX2                !
 ! D37   D(16,7,12,4)         -179.3422         estimate D2E/DX2                !
 ! D38   D(16,7,12,6)            0.5995         estimate D2E/DX2                !
 ! D39   D(12,7,16,14)          -0.4171         estimate D2E/DX2                !
 ! D40   D(12,7,16,32)         179.4805         estimate D2E/DX2                !
 ! D41   D(10,8,9,11)          -37.1343         estimate D2E/DX2                !
 ! D42   D(10,8,9,24)           80.8239         estimate D2E/DX2                !
 ! D43   D(10,8,9,25)         -158.4577         estimate D2E/DX2                !
 ! D44   D(22,8,9,11)           80.3424         estimate D2E/DX2                !
 ! D45   D(22,8,9,24)         -161.6994         estimate D2E/DX2                !
 ! D46   D(22,8,9,25)          -40.981          estimate D2E/DX2                !
 ! D47   D(23,8,9,11)         -159.2512         estimate D2E/DX2                !
 ! D48   D(23,8,9,24)          -41.293          estimate D2E/DX2                !
 ! D49   D(23,8,9,25)           79.4254         estimate D2E/DX2                !
 ! D50   D(9,8,10,4)            30.5298         estimate D2E/DX2                !
 ! D51   D(9,8,10,26)          150.4463         estimate D2E/DX2                !
 ! D52   D(9,8,10,27)          -87.8351         estimate D2E/DX2                !
 ! D53   D(22,8,10,4)          -87.0604         estimate D2E/DX2                !
 ! D54   D(22,8,10,26)          32.8562         estimate D2E/DX2                !
 ! D55   D(22,8,10,27)         154.5747         estimate D2E/DX2                !
 ! D56   D(23,8,10,4)          153.0316         estimate D2E/DX2                !
 ! D57   D(23,8,10,26)         -87.0519         estimate D2E/DX2                !
 ! D58   D(23,8,10,27)          34.6667         estimate D2E/DX2                !
 ! D59   D(8,9,11,4)            28.8862         estimate D2E/DX2                !
 ! D60   D(8,9,11,28)          148.9117         estimate D2E/DX2                !
 ! D61   D(8,9,11,29)          -89.634          estimate D2E/DX2                !
 ! D62   D(24,9,11,4)          -89.0294         estimate D2E/DX2                !
 ! D63   D(24,9,11,28)          30.9961         estimate D2E/DX2                !
 ! D64   D(24,9,11,29)         152.4504         estimate D2E/DX2                !
 ! D65   D(25,9,11,4)          150.948          estimate D2E/DX2                !
 ! D66   D(25,9,11,28)         -89.0265         estimate D2E/DX2                !
 ! D67   D(25,9,11,29)          32.4278         estimate D2E/DX2                !
 ! D68   D(5,13,14,16)         179.9382         estimate D2E/DX2                !
 ! D69   D(5,13,14,18)           0.2611         estimate D2E/DX2                !
 ! D70   D(6,13,14,16)           0.3413         estimate D2E/DX2                !
 ! D71   D(6,13,14,18)        -179.3358         estimate D2E/DX2                !
 ! D72   D(13,14,16,7)          -0.0111         estimate D2E/DX2                !
 ! D73   D(13,14,16,32)       -179.908          estimate D2E/DX2                !
 ! D74   D(18,14,16,7)         179.6739         estimate D2E/DX2                !
 ! D75   D(18,14,16,32)         -0.223          estimate D2E/DX2                !
 ! D76   D(13,14,18,1)        -177.8295         estimate D2E/DX2                !
 ! D77   D(13,14,18,19)          1.4694         estimate D2E/DX2                !
 ! D78   D(16,14,18,1)           2.5143         estimate D2E/DX2                !
 ! D79   D(16,14,18,19)       -178.1868         estimate D2E/DX2                !
 ! D80   D(5,15,20,34)         -59.8551         estimate D2E/DX2                !
 ! D81   D(5,15,20,35)          61.3592         estimate D2E/DX2                !
 ! D82   D(5,15,20,36)        -179.3869         estimate D2E/DX2                !
 ! D83   D(30,15,20,34)       -179.3726         estimate D2E/DX2                !
 ! D84   D(30,15,20,35)        -58.1583         estimate D2E/DX2                !
 ! D85   D(30,15,20,36)         61.0957         estimate D2E/DX2                !
 ! D86   D(31,15,20,34)         60.1297         estimate D2E/DX2                !
 ! D87   D(31,15,20,35)       -178.6559         estimate D2E/DX2                !
 ! D88   D(31,15,20,36)        -59.402          estimate D2E/DX2                !
 ! D89   D(5,17,19,18)           2.4651         estimate D2E/DX2                !
 ! D90   D(5,17,19,21)        -177.1682         estimate D2E/DX2                !
 ! D91   D(33,17,19,18)       -178.5352         estimate D2E/DX2                !
 ! D92   D(33,17,19,21)          1.8315         estimate D2E/DX2                !
 ! D93   D(1,18,19,17)         176.5522         estimate D2E/DX2                !
 ! D94   D(1,18,19,21)          -3.859          estimate D2E/DX2                !
 ! D95   D(14,18,19,17)         -2.7158         estimate D2E/DX2                !
 ! D96   D(14,18,19,21)        176.873          estimate D2E/DX2                !
 ! D97   D(17,19,21,2)         168.5226         estimate D2E/DX2                !
 ! D98   D(17,19,21,3)          -9.8597         estimate D2E/DX2                !
 ! D99   D(18,19,21,2)         -11.0852         estimate D2E/DX2                !
 ! D100  D(18,19,21,3)         170.5326         estimate D2E/DX2                !
 --------------------------------------------------------------------------------
 Trust Radius=3.00D-01 FncErr=1.00D-07 GrdErr=1.00D-06
 Number of steps in this run=    218 maximum allowed number of steps=    222.
 GradGradGradGradGradGradGradGradGradGradGradGradGradGradGradGradGradGrad

                          Input orientation:                          
 ---------------------------------------------------------------------
 Center     Atomic      Atomic             Coordinates (Angstroms)
 Number     Number       Type             X           Y           Z
 ---------------------------------------------------------------------
      1          8           0       -5.079000    4.342000   -6.880000
      2          8           0       -2.619000    5.450000   -6.266000
      3          8           0       -2.483000    7.708000   -6.353000
      4          7           0      -10.929000    6.557000   -6.532000
      5          7           0       -6.569000    8.161000   -6.302000
      6          7           0       -8.766000    7.373000   -6.421000
      7          7           0       -9.216000    5.011000   -6.770000
      8          6           0      -12.980000    7.693000   -6.677000
      9          6           0      -13.244000    6.235000   -6.282000
     10          6           0      -11.503000    7.890000   -6.332000
     11          6           0      -11.951000    5.512000   -6.667000
     12          6           0       -9.600000    6.313000   -6.575000
     13          6           0       -7.456000    7.097000   -6.461000
     14          6           0       -6.936000    5.802000   -6.645000
     15          6           0       -7.070000    9.535000   -6.123000
     16          6           0       -7.904000    4.794000   -6.795000
     17          6           0       -5.232000    7.917000   -6.312000
     18          6           0       -5.496000    5.496000   -6.675000
     19          6           0       -4.650000    6.681000   -6.458000
     20          6           0       -7.288000   10.265000   -7.440000
     21          6           0       -3.176000    6.684000   -6.368000
     22          1           0      -13.135000    7.827000   -7.758000
     23          1           0      -13.633000    8.406000   -6.159000
     24          1           0      -13.412000    6.161000   -5.197000
     25          1           0      -14.118000    5.806000   -6.789000
     26          1           0      -10.993000    8.628000   -6.966000
     27          1           0      -11.364000    8.209000   -5.284000
     28          1           0      -11.713000    4.653000   -6.026000
     29          1           0      -11.980000    5.139000   -7.705000
     30          1           0       -8.012000    9.458000   -5.567000
     31          1           0       -6.337000   10.059000   -5.495000
     32          1           0       -7.563000    3.765000   -6.940000
     33          1           0       -4.591000    8.789000   -6.176000
     34          1           0       -6.357000   10.343000   -8.018000
     35          1           0       -8.039000    9.748000   -8.051000
     36          1           0       -7.650000   11.284000   -7.242000
     37          1           0       -1.652000    5.617000   -6.181000
 ---------------------------------------------------------------------
                    Distance matrix (angstroms):
                    1          2          3          4          5
     1  O    0.000000
     2  O    2.766995   0.000000
     3  O    4.283328   2.263764   0.000000
     4  N    6.264968   8.387628   8.525946   0.000000
     5  N    4.139921   4.790962   4.111351   4.651378   0.000000
     6  N    4.794957   6.442636   6.292292   2.314465   2.337074
     7  N    4.192187   6.630773   7.265052   2.319726   4.141030
     8  C    8.584650  10.608972  10.502010   2.349068   6.438988
     9  C    8.402873  10.653971  10.861579   2.350619   6.947338
    10  C    7.359102   9.213219   9.021860   1.465048   4.941528
    11  C    6.974142   9.340817   9.724404   1.467901   6.009688
    12  C    4.941387   7.040924   7.255825   1.351897   3.560420
    13  C    3.662747   5.113434   5.011558   3.515447   1.394326
    14  C    2.373873   4.347877   4.852557   4.065322   2.411891
    15  C    5.612876   6.043101   4.942813   4.891589   1.473404
    16  C    2.862194   5.351766   6.170413   3.511120   3.655402
    17  C    3.623073   3.593880   2.757238   5.861212   1.359119
    18  C    1.244038   2.906291   3.751639   5.537478   2.897013
    19  C    2.415170   2.382685   2.400342   6.280660   2.428435
    20  C    6.346275   6.808969   5.550481   5.275472   2.497763
    21  C    3.060803   1.357722   1.236548   7.755774   3.701126
    22  H    8.821295  10.884046  10.744919   2.825316   6.733784
    23  H    9.497729  11.404279  11.173511   3.296899   7.069694
    24  H    8.693684  10.869091  11.098315   2.846810   7.214407
    25  H    9.157243  11.516391  11.797497   3.286301   7.922790
    26  H    7.304286   8.984073   8.581507   2.116954   4.497862
    27  H    7.549975   9.222333   8.959125   2.115616   4.902107
    28  H    6.695968   9.132012   9.727942   2.120356   6.232413
    29  H    6.995687   9.476063   9.930794   2.119258   6.354511
    30  H    6.041516   6.755525   5.852362   4.225626   2.074773
    31  H    6.015387   5.971670   4.595289   5.867353   2.075446
    32  H    2.550840   5.266558   6.457416   4.392230   4.551911
    33  H    4.528749   3.878892   2.375617   6.728953   2.079121
    34  H    6.240219   6.401843   4.972256   6.119246   2.784012
    35  H    6.273570   7.143909   6.157430   4.565298   2.781811
    36  H    7.411643   7.765249   6.346336   5.796591   3.435883
    37  H    3.722708   0.984989   2.256640   9.331106   5.537460
                    6          7          8          9         10
     6  N    0.000000
     7  N    2.429680   0.000000
     8  C    4.233879   4.622712   0.000000
     9  C    4.622429   4.238054   1.533455   0.000000
    10  C    2.786822   3.702817   1.529498   2.402625   0.000000
    11  C    3.697034   2.782415   2.411577   1.530622   2.442911
    12  C    1.357524   1.371381   3.652288   3.656593   2.483422
    13  C    1.339357   2.746721   5.560256   5.854573   4.125979
    14  C    2.422213   2.416548   6.332996   6.333255   5.031421
    15  C    2.763958   5.048812   6.215141   7.002397   4.732990
    16  C    2.744843   1.330059   5.846700   5.554750   4.769946
    17  C    3.577286   4.952460   7.759826   8.186707   6.271090
    18  C    3.778961   3.752686   7.799812   7.793079   6.475564
    19  C    4.173930   4.871817   8.394105   8.607365   6.959969
    20  C    3.403896   5.636541   6.292553   7.283941   4.963317
    21  C    5.632551   6.280297   9.860628  10.078374   8.413956
    22  H    4.591497   4.925907   1.100246   2.173688   2.168149
    23  H    4.982311   5.604394   1.096860   2.209002   2.198428
    24  H    4.955041   4.626364   2.173488   1.100420   2.814595
    25  H    5.588812   4.966084   2.206435   1.097709   3.374927
    26  H    2.613729   4.034704   2.214930   3.355787   1.098499
    27  H    2.956564   4.129080   2.195031   2.902943   1.104258
    28  H    4.029793   2.629964   3.357185   2.216353   3.258206
    29  H    4.119370   2.920669   2.929112   2.196324   3.111376
    30  H    2.375933   4.761579   5.387796   6.186500   3.902682
    31  H    3.737929   5.949502   7.150142   7.934040   5.665041
    32  H    3.838520   2.076975   6.696435   6.229577   5.736627
    33  H    4.415394   6.001395   8.475113   9.022669   6.971964
    34  H    4.144224   6.177508   7.258437   8.204884   5.944840
    35  H    2.970868   5.046331   5.524888   6.523998   4.290271
    36  H    4.149147   6.482721   6.451620   7.596502   5.214686
    37  H    7.331448   7.611061  11.527332  11.608901  10.110961
                   11         12         13         14         15
    11  C    0.000000
    12  C    2.485411   0.000000
    13  C    4.770711   2.285692   0.000000
    14  C    5.023426   2.713470   1.407580   0.000000
    15  C    6.348592   4.121467   2.491402   3.771701   0.000000
    16  C    4.112191   2.287395   2.369825   1.405556   4.860475
    17  C    7.145279   4.660623   2.375032   2.736372   2.455990
    18  C    6.455025   4.185726   2.539803   1.472459   4.369863
    19  C    7.396948   4.965039   2.836671   2.456299   3.756853
    20  C    6.703142   4.659600   3.320074   4.546900   1.521484
    21  C    8.857969   6.438033   4.300886   3.871983   4.832335
    22  H    2.819816   4.023420   5.870788   6.615663   6.509586
    23  H    3.385620   4.562762   6.321393   7.201862   6.659497
    24  H    2.171779   4.056271   6.160173   6.645612   7.243087
    25  H    2.190253   4.551392   6.793858   7.183445   8.001456
    26  H    3.273625   2.729937   3.887075   4.954651   4.113785
    27  H    3.087243   2.893647   4.230170   5.220455   4.571721
    28  H    1.097910   2.742585   4.927921   4.952079   6.738010
    29  H    1.103365   2.884368   5.084081   5.196644   6.777584
    30  H    5.683013   3.664537   2.585091   3.960580   1.096553
    31  H    7.318865   5.083905   3.310402   4.450096   1.098294
    32  H    4.730865   3.282514   3.367954   2.151633   5.848371
    33  H    8.071518   5.601773   3.339508   3.826376   2.589356
    34  H    7.513761   5.370307   3.764116   4.779231   2.179967
    35  H    5.929831   4.051484   3.145757   4.331785   2.168297
    36  H    7.221164   5.381285   4.263633   5.560443   2.155820
    37  H   10.310995   7.988138   5.996267   5.307558   6.686465
                   16         17         18         19         20
    16  C    0.000000
    17  C    4.138357   0.000000
    18  C    2.511109   2.462256   0.000000
    19  C    3.776619   1.373949   1.472084   0.000000
    20  C    5.543223   3.318527   5.151684   4.557239   0.000000
    21  C    5.109639   2.398033   2.624499   1.476748   5.557094
    22  H    6.122893   8.034701   8.059825   8.660170   6.342900
    23  H    6.802388   8.416610   8.657085   9.152012   6.734676
    24  H    5.895791   8.440329   8.080208   8.867534   7.705663
    25  H    6.295870   9.145756   8.628324   9.514106   8.182627
    26  H    4.926532   5.841435   6.333334   6.654511   4.078170
    27  H    5.090869   6.224425   6.612766   6.985045   5.048688
    28  H    3.888409   7.262152   6.307372   7.361072   7.285229
    29  H    4.190573   7.429215   6.574998   7.593528   6.954205
    30  H    4.824163   3.264675   4.822382   4.450691   2.164152
    31  H    5.644972   2.544932   4.787552   3.896694   2.174825
    32  H    1.093685   4.802817   2.709073   4.149813   6.525000
    33  H    5.226773   1.090762   3.451358   2.127597   3.324166
    34  H    5.889002   3.171993   5.102781   4.331015   1.098603
    35  H    5.112522   3.775703   5.141958   4.840399   1.097548
    36  H    6.510332   4.248331   6.201786   5.549979   1.099368
    37  H    6.335758   4.257178   3.877501   3.193247   7.413062
                   21         22         23         24         25
    21  C    0.000000
    22  H   10.120288   0.000000
    23  H   10.599897   1.772017   0.000000
    24  H   10.316030   3.067736   2.452409   0.000000
    25  H   10.985240   2.447385   2.718846   1.777336   0.000000
    26  H    8.077266   2.420130   2.769500   3.881625   4.214337
    27  H    8.399049   3.066438   2.439835   2.897616   3.952714
    28  H    8.781930   3.885381   4.217712   2.418244   2.774095
    29  H    9.037976   2.926120   3.974395   3.063523   2.419708
    30  H    5.632368   5.805667   5.749157   6.337753   7.218977
    31  H    4.705813   7.504385   7.510321   8.083244   8.961384
    32  H    5.300331   6.943785   7.680738   6.556651   6.867060
    33  H    2.543642   8.742317   9.050124   9.256072  10.001889
    34  H    5.121478   7.234579   7.755516   8.672957   9.073474
    35  H    5.989103   5.453926   6.055862   7.062649   7.354335
    36  H    6.476153   6.504024   6.726965   7.976703   8.488152
    37  H    1.869768  11.799590  12.301356  11.813627  12.482249
                   26         27         28         29         30
    26  H    0.000000
    27  H    1.772661   0.000000
    28  H    4.147605   3.649315   0.000000
    29  H    3.700461   3.957979   1.768199   0.000000
    30  H    3.395948   3.588314   6.082443   6.242582   0.000000
    31  H    5.088216   5.360760   7.642524   7.806020   1.781014
    32  H    5.950995   6.077752   4.341249   4.688602   5.873413
    33  H    6.452567   6.856062   8.237225   8.381984   3.538599
    34  H    5.053754   6.090875   8.064174   7.667967   3.087013
    35  H    3.340320   4.591343   6.599843   6.074050   2.501017
    36  H    4.278570   5.204151   7.871263   7.531553   2.504185
    37  H    9.845640  10.091879  10.108266  10.450772   7.455191
                   31         32         33         34         35
    31  H    0.000000
    32  H    6.573092   0.000000
    33  H    2.263885   5.887024   0.000000
    34  H    2.539013   6.773965   2.987748   0.000000
    35  H    3.086529   6.103866   4.040298   1.784443   0.000000
    36  H    2.505315   7.525565   4.088871   1.777500   1.779072
    37  H    6.492394   6.240666   4.324272   6.917129   7.832996
                   36         37
    36  H    0.000000
    37  H    8.319652   0.000000
 Stoichiometry    C14H16N4O3
 Framework group  C1[X(C14H16N4O3)]
 Deg. of freedom   105
 Full point group                 C1      NOp   1
 Largest Abelian subgroup         C1      NOp   1
 Largest concise Abelian subgroup C1      NOp   1
                         Standard orientation:                         
 ---------------------------------------------------------------------
 Center     Atomic      Atomic             Coordinates (Angstroms)
 Number     Number       Type             X           Y           Z
 ---------------------------------------------------------------------
      1          8           0       -2.629687   -2.473919    0.355662
      2          8           0       -5.081267   -1.331093   -0.227404
      3          8           0       -5.186325    0.928156   -0.130535
      4          7           0        3.245092   -0.335216   -0.047749
      5          7           0       -1.095463    1.327228   -0.224318
      6          7           0        1.092041    0.509764   -0.132167
      7          7           0        1.514396   -1.859315    0.203131
      8          6           0        5.312445    0.772969    0.079142
      9          6           0        5.552769   -0.686861   -0.324125
     10          6           0        3.834540    0.990832   -0.249027
     11          6           0        4.254530   -1.394165    0.072234
     12          6           0        1.913514   -0.561768    0.008805
     13          6           0       -0.220997    0.250975   -0.078938
     14          6           0       -0.756121   -1.037730    0.105895
     15          6           0       -0.578233    2.695158   -0.403651
     16          6           0        0.199978   -2.059025    0.241602
     17          6           0       -2.435398    1.100909   -0.200674
     18          6           0       -2.199648   -1.324757    0.150428
     19          6           0       -3.032141   -0.127834   -0.052945
     20          6           0       -0.336305    3.417117    0.913604
     21          6           0       -4.506860   -0.104977   -0.126885
     22          1           0        5.480912    0.900730    1.158882
     23          1           0        5.969204    1.479259   -0.443280
     24          1           0        5.708007   -0.758888   -1.411157
     25          1           0        6.426437   -1.129346    0.171734
     26          1           0        3.341281    1.733064    0.393225
     27          1           0        3.688442    1.315689   -1.294259
     28          1           0        3.998216   -2.247458   -0.569327
     29          1           0        4.289819   -1.771522    1.108463
     30          1           0        0.356583    2.607844   -0.970152
     31          1           0       -1.310971    3.231235   -1.021683
     32          1           0       -0.153063   -3.083974    0.386478
     33          1           0       -3.066199    1.981836   -0.326447
     34          1           0       -1.259871    3.505200    1.501988
     35          1           0        0.414340    2.887867    1.514468
     36          1           0        0.037026    4.431993    0.715465
     37          1           0       -6.046829   -1.150982   -0.301253
 ---------------------------------------------------------------------
 Rotational constants (GHZ):      0.6990029      0.1634218      0.1349372
 Standard basis: 3-21G (6D, 7F)
 There are   221 symmetry adapted cartesian basis functions of A   symmetry.
 There are   221 symmetry adapted basis functions of A   symmetry.
   221 basis functions,   363 primitive gaussians,   221 cartesian basis functions
    76 alpha electrons       76 beta electrons
       nuclear repulsion energy      1659.1854932800 Hartrees.
 NAtoms=   37 NActive=   37 NUniq=   37 SFac= 1.00D+00 NAtFMM=   60 NAOKFM=F Big=F
 Integral buffers will be    131072 words long.
 Raffenetti 2 integral format.
 Two-electron integral symmetry is turned on.
 One-electron integrals computed using PRISM.
 PrsmSu:  requested number of processors reduced to:   9 ShMem   1 Linda.
 NBasis=   221 RedAO= T EigKep=  2.50D-03  NBF=   221
 NBsUse=   221 1.00D-06 EigRej= -1.00D+00 NBFU=   221
 ExpMin= 1.83D-01 ExpMax= 3.22D+02 ExpMxC= 3.22D+02 IAcc=1 IRadAn=         1 AccDes= 0.00D+00
 Harris functional with IExCor=  402 and IRadAn=       1 diagonalized for initial guess.
 HarFok:  IExCor=  402 AccDes= 0.00D+00 IRadAn=         1 IDoV= 1 UseB2=F ITyADJ=14
 ICtDFT=  3500011 ScaDFX=  1.000000  1.000000  1.000000  1.000000
 FoFCou: FMM=F IPFlag=           0 FMFlag=      100000 FMFlg1=           0
         NFxFlg=           0 DoJE=T BraDBF=F KetDBF=T FulRan=T
         wScrn=  0.000000 ICntrl=     500 IOpCl=  0 I1Cent=   200000004 NGrid=           0
         NMat0=    1 NMatS0=      1 NMatT0=    0 NMatD0=    1 NMtDS0=    0 NMtDT0=    0
 Petite list used in FoFCou.
 Requested convergence on RMS density matrix=1.00D-08 within 128 cycles.
 Requested convergence on MAX density matrix=1.00D-06.
 Requested convergence on             energy=1.00D-06.
 No special actions if energy rises.
 Integral accuracy reduced to 1.0D-05 until final iterations.
 EnCoef did     1 forward-backward iterations
 Initial convergence to 1.0D-05 achieved.  Increase integral accuracy.
 SCF Done:  E(RB3LYP) =  -982.416241510     A.U. after   17 cycles
            NFock= 17  Conv=0.41D-08     -V/T= 2.0082

 **********************************************************************

            Population analysis using the SCF density.

 **********************************************************************

 Orbital symmetries:
       Occupied  (A) (A) (A) (A) (A) (A) (A) (A) (A) (A) (A) (A)
                 (A) (A) (A) (A) (A) (A) (A) (A) (A) (A) (A) (A)
                 (A) (A) (A) (A) (A) (A) (A) (A) (A) (A) (A) (A)
                 (A) (A) (A) (A) (A) (A) (A) (A) (A) (A) (A) (A)
                 (A) (A) (A) (A) (A) (A) (A) (A) (A) (A) (A) (A)
                 (A) (A) (A) (A) (A) (A) (A) (A) (A) (A) (A) (A)
                 (A) (A) (A) (A)
       Virtual   (A) (A) (A) (A) (A) (A) (A) (A) (A) (A) (A) (A)
                 (A) (A) (A) (A) (A) (A) (A) (A) (A) (A) (A) (A)
                 (A) (A) (A) (A) (A) (A) (A) (A) (A) (A) (A) (A)
                 (A) (A) (A) (A) (A) (A) (A) (A) (A) (A) (A) (A)
                 (A) (A) (A) (A) (A) (A) (A) (A) (A) (A) (A) (A)
                 (A) (A) (A) (A) (A) (A) (A) (A) (A) (A) (A) (A)
                 (A) (A) (A) (A) (A) (A) (A) (A) (A) (A) (A) (A)
                 (A) (A) (A) (A) (A) (A) (A) (A) (A) (A) (A) (A)
                 (A) (A) (A) (A) (A) (A) (A) (A) (A) (A) (A) (A)
                 (A) (A) (A) (A) (A) (A) (A) (A) (A) (A) (A) (A)
                 (A) (A) (A) (A) (A) (A) (A) (A) (A) (A) (A) (A)
                 (A) (A) (A) (A) (A) (A) (A) (A) (A) (A) (A) (A)
                 (A)
 The electronic state is 1-A.
 Alpha  occ. eigenvalues --  -19.07008 -19.01399 -18.99504 -14.33679 -14.29336
 Alpha  occ. eigenvalues --  -14.26272 -14.25651 -10.25156 -10.24268 -10.23062
 Alpha  occ. eigenvalues --  -10.19949 -10.19914 -10.18226 -10.18002 -10.16892
 Alpha  occ. eigenvalues --  -10.16503 -10.14206 -10.13990 -10.13875 -10.13724
 Alpha  occ. eigenvalues --  -10.13130  -1.09947  -1.03763  -1.01422  -1.00804
 Alpha  occ. eigenvalues --   -1.00353  -0.95361  -0.90690  -0.83390  -0.82337
 Alpha  occ. eigenvalues --   -0.78335  -0.76957  -0.75429  -0.70444  -0.68983
 Alpha  occ. eigenvalues --   -0.66812  -0.63275  -0.62252  -0.60890  -0.59819
 Alpha  occ. eigenvalues --   -0.56722  -0.55261  -0.53160  -0.52074  -0.51360
 Alpha  occ. eigenvalues --   -0.49433  -0.48242  -0.47392  -0.45748  -0.45344
 Alpha  occ. eigenvalues --   -0.44463  -0.44043  -0.43816  -0.43537  -0.42841
 Alpha  occ. eigenvalues --   -0.41812  -0.41168  -0.40783  -0.39459  -0.37959
 Alpha  occ. eigenvalues --   -0.37831  -0.37088  -0.36862  -0.36805  -0.36531
 Alpha  occ. eigenvalues --   -0.36084  -0.34283  -0.31425  -0.31149  -0.30596
 Alpha  occ. eigenvalues --   -0.28781  -0.26027  -0.24777  -0.22805  -0.22158
 Alpha  occ. eigenvalues --   -0.21619
 Alpha virt. eigenvalues --   -0.05258  -0.03007   0.00080   0.03905   0.09420
 Alpha virt. eigenvalues --    0.09697   0.10898   0.11344   0.12134   0.12938
 Alpha virt. eigenvalues --    0.14007   0.15037   0.15062   0.15859   0.16348
 Alpha virt. eigenvalues --    0.16493   0.16866   0.17862   0.18365   0.18641
 Alpha virt. eigenvalues --    0.18989   0.19227   0.20328   0.21946   0.22653
 Alpha virt. eigenvalues --    0.22977   0.23540   0.24172   0.24616   0.26404
 Alpha virt. eigenvalues --    0.26735   0.28058   0.29182   0.29950   0.31246
 Alpha virt. eigenvalues --    0.36110   0.36622   0.39515   0.41241   0.42474
 Alpha virt. eigenvalues --    0.44283   0.47730   0.52241   0.54343   0.55264
 Alpha virt. eigenvalues --    0.63114   0.64623   0.65980   0.67207   0.67608
 Alpha virt. eigenvalues --    0.68242   0.69330   0.70663   0.71518   0.71705
 Alpha virt. eigenvalues --    0.73051   0.73660   0.74077   0.74421   0.75432
 Alpha virt. eigenvalues --    0.75564   0.76200   0.76604   0.77649   0.78095
 Alpha virt. eigenvalues --    0.78559   0.79630   0.80026   0.80721   0.81387
 Alpha virt. eigenvalues --    0.83908   0.84522   0.87491   0.88251   0.89539
 Alpha virt. eigenvalues --    0.89868   0.92986   0.95604   0.96838   0.97647
 Alpha virt. eigenvalues --    0.98225   0.99311   1.00015   1.01413   1.02512
 Alpha virt. eigenvalues --    1.03469   1.03910   1.04443   1.05781   1.07931
 Alpha virt. eigenvalues --    1.08663   1.09052   1.10099   1.10868   1.12819
 Alpha virt. eigenvalues --    1.13773   1.16100   1.17557   1.20238   1.20834
 Alpha virt. eigenvalues --    1.22237   1.25554   1.27662   1.34113   1.34144
 Alpha virt. eigenvalues --    1.36157   1.37506   1.42243   1.42510   1.44414
 Alpha virt. eigenvalues --    1.44557   1.47938   1.48762   1.53328   1.56618
 Alpha virt. eigenvalues --    1.57543   1.59466   1.61596   1.62586   1.64461
 Alpha virt. eigenvalues --    1.65838   1.67185   1.69959   1.71108   1.75665
 Alpha virt. eigenvalues --    1.78883   1.80356   1.82421   1.85301   1.87562
 Alpha virt. eigenvalues --    1.90153   1.93220   1.96602   2.01407   2.10184
 Alpha virt. eigenvalues --    2.17200   2.27348   2.27528   2.82211   2.88410
 Alpha virt. eigenvalues --    3.00066   3.11080   3.15580   3.42794   3.59682
          Condensed to atoms (all electrons):
               1          2          3          4          5          6
     1  O    8.071058  -0.000779  -0.000001   0.000000  -0.000024  -0.000001
     2  O   -0.000779   8.233390  -0.065184   0.000000  -0.000001   0.000000
     3  O   -0.000001  -0.065184   8.144654   0.000000   0.000085   0.000000
     4  N    0.000000   0.000000   0.000000   7.360986  -0.000008  -0.073821
     5  N   -0.000024  -0.000001   0.000085  -0.000008   7.443808  -0.057081
     6  N   -0.000001   0.000000   0.000000  -0.073821  -0.057081   7.124646
     7  N    0.000044   0.000000   0.000000  -0.072917  -0.000044  -0.065731
     8  C    0.000000   0.000000   0.000000  -0.059338   0.000000   0.000320
     9  C    0.000000   0.000000   0.000000  -0.058350   0.000000  -0.000042
    10  C    0.000000   0.000000   0.000000   0.248448  -0.000009   0.003797
    11  C    0.000000   0.000000   0.000000   0.244157   0.000000   0.001811
    12  C   -0.000003   0.000000   0.000000   0.263866   0.001772   0.378986
    13  C    0.003108  -0.000002   0.000001   0.001781   0.197460   0.412904
    14  C   -0.123377   0.000109  -0.000015  -0.000008  -0.056165  -0.055296
    15  C    0.000000   0.000000   0.000002   0.000000   0.230365  -0.005258
    16  C    0.000376   0.000000   0.000000   0.001735   0.003826  -0.028229
    17  C    0.003477   0.003103   0.004257   0.000000   0.239529   0.001521
    18  C    0.647698   0.002419   0.001853   0.000002  -0.030027   0.002788
    19  C   -0.113993  -0.094673  -0.113827   0.000000  -0.018677  -0.000314
    20  C    0.000000   0.000000   0.000000   0.000003  -0.054213  -0.002294
    21  C   -0.003943   0.220750   0.519713   0.000000   0.004449   0.000000
    22  H    0.000000   0.000000   0.000000   0.000962   0.000000   0.000000
    23  H    0.000000   0.000000   0.000000   0.002352   0.000000   0.000000
    24  H    0.000000   0.000000   0.000000   0.000963   0.000000   0.000000
    25  H    0.000000   0.000000   0.000000   0.002342   0.000000   0.000000
    26  H    0.000000   0.000000   0.000000  -0.038142  -0.000016   0.006953
    27  H    0.000000   0.000000   0.000000  -0.045043  -0.000001   0.001851
    28  H    0.000000   0.000000   0.000000  -0.037572   0.000000   0.000104
    29  H    0.000000   0.000000   0.000000  -0.043384   0.000000   0.000026
    30  H    0.000000   0.000000   0.000000  -0.000064  -0.035383   0.018043
    31  H    0.000000   0.000000  -0.000002   0.000000  -0.035215   0.000359
    32  H    0.011402   0.000000   0.000000  -0.000026  -0.000024  -0.000179
    33  H   -0.000003   0.000239   0.018909   0.000000  -0.034470  -0.000036
    34  H    0.000000   0.000000   0.000000   0.000000  -0.001237   0.000002
    35  H    0.000000   0.000000   0.000000  -0.000019  -0.002777   0.004441
    36  H    0.000000   0.000000   0.000000   0.000000   0.002675   0.000000
    37  H    0.000166   0.239366   0.005737   0.000000   0.000000   0.000000
               7          8          9         10         11         12
     1  O    0.000044   0.000000   0.000000   0.000000   0.000000  -0.000003
     2  O    0.000000   0.000000   0.000000   0.000000   0.000000   0.000000
     3  O    0.000000   0.000000   0.000000   0.000000   0.000000   0.000000
     4  N   -0.072917  -0.059338  -0.058350   0.248448   0.244157   0.263866
     5  N   -0.000044   0.000000   0.000000  -0.000009   0.000000   0.001772
     6  N   -0.065731   0.000320  -0.000042   0.003797   0.001811   0.378986
     7  N    7.031638  -0.000046   0.000348   0.001734   0.004783   0.372883
     8  C   -0.000046   5.437219   0.255420   0.264552  -0.095176   0.004990
     9  C    0.000348   0.255420   5.446167  -0.098998   0.260201   0.005461
    10  C    0.001734   0.264552  -0.098998   5.184927  -0.075976  -0.048866
    11  C    0.004783  -0.095176   0.260201  -0.075976   5.180403  -0.047376
    12  C    0.372883   0.004990   0.005461  -0.048866  -0.047376   4.470392
    13  C   -0.028528  -0.000004   0.000001   0.000221  -0.000098  -0.102284
    14  C   -0.047400   0.000000   0.000000   0.000025   0.000031  -0.018743
    15  C    0.000002   0.000000   0.000000  -0.000043   0.000000   0.000151
    16  C    0.404762   0.000001   0.000000  -0.000126   0.000328  -0.112361
    17  C    0.000006   0.000000   0.000000   0.000000   0.000000  -0.000055
    18  C    0.003653   0.000000   0.000000   0.000000   0.000000   0.000996
    19  C   -0.000041   0.000000   0.000000   0.000000   0.000000  -0.000082
    20  C   -0.000001   0.000000   0.000000  -0.000025   0.000000  -0.000030
    21  C    0.000000   0.000000   0.000000   0.000000   0.000000   0.000000
    22  H    0.000000   0.371432  -0.044599  -0.042139   0.002302  -0.000140
    23  H    0.000000   0.376899  -0.031375  -0.034661   0.003947  -0.000043
    24  H   -0.000001  -0.044918   0.371613   0.002260  -0.041642  -0.000151
    25  H    0.000000  -0.031637   0.377385   0.004099  -0.035335  -0.000047
    26  H    0.000094  -0.029677   0.004376   0.367745   0.002481  -0.000925
    27  H    0.000016  -0.044398  -0.001038   0.365757   0.003011  -0.001633
    28  H    0.006387   0.004218  -0.030507   0.002357   0.370005  -0.000833
    29  H    0.001789  -0.000721  -0.043729   0.003040   0.367913  -0.001746
    30  H    0.000013   0.000001   0.000000   0.000234   0.000000   0.000099
    31  H    0.000000   0.000000   0.000000   0.000000   0.000000   0.000000
    32  H   -0.035688   0.000000   0.000000   0.000001  -0.000014   0.003795
    33  H    0.000000   0.000000   0.000000   0.000000   0.000000   0.000001
    34  H    0.000000   0.000000   0.000000   0.000000   0.000000   0.000000
    35  H    0.000003   0.000001   0.000000   0.000000   0.000000   0.000072
    36  H    0.000000   0.000000   0.000000   0.000000   0.000000   0.000000
    37  H    0.000000   0.000000   0.000000   0.000000   0.000000   0.000000
              13         14         15         16         17         18
     1  O    0.003108  -0.123377   0.000000   0.000376   0.003477   0.647698
     2  O   -0.000002   0.000109   0.000000   0.000000   0.003103   0.002419
     3  O    0.000001  -0.000015   0.000002   0.000000   0.004257   0.001853
     4  N    0.001781  -0.000008   0.000000   0.001735   0.000000   0.000002
     5  N    0.197460  -0.056165   0.230365   0.003826   0.239529  -0.030027
     6  N    0.412904  -0.055296  -0.005258  -0.028229   0.001521   0.002788
     7  N   -0.028528  -0.047400   0.000002   0.404762   0.000006   0.003653
     8  C   -0.000004   0.000000   0.000000   0.000001   0.000000   0.000000
     9  C    0.000001   0.000000   0.000000   0.000000   0.000000   0.000000
    10  C    0.000221   0.000025  -0.000043  -0.000126   0.000000   0.000000
    11  C   -0.000098   0.000031   0.000000   0.000328   0.000000   0.000000
    12  C   -0.102284  -0.018743   0.000151  -0.112361  -0.000055   0.000996
    13  C    4.885261   0.168500  -0.050030  -0.107719  -0.071808   0.016009
    14  C    0.168500   6.362151   0.002727   0.235024  -0.007111  -0.075182
    15  C   -0.050030   0.002727   5.208089  -0.000079  -0.057855  -0.000077
    16  C   -0.107719   0.235024  -0.000079   5.135313  -0.000815  -0.054320
    17  C   -0.071808  -0.007111  -0.057855  -0.000815   5.100561  -0.023838
    18  C    0.016009  -0.075182  -0.000077  -0.054320  -0.023838   5.229657
    19  C   -0.018976  -0.179229   0.001972   0.011187   0.319717  -0.068836
    20  C   -0.001341  -0.000218   0.268227   0.000003  -0.000013   0.000000
    21  C   -0.000460   0.005774  -0.000037   0.000003  -0.093128  -0.037749
    22  H    0.000000   0.000000   0.000000   0.000000   0.000000   0.000000
    23  H    0.000000   0.000000   0.000000   0.000000   0.000000   0.000000
    24  H    0.000000   0.000000   0.000000   0.000000   0.000000   0.000000
    25  H    0.000000   0.000000   0.000000   0.000000   0.000000   0.000000
    26  H   -0.000045   0.000006   0.000033   0.000000   0.000000   0.000000
    27  H   -0.000021  -0.000002  -0.000020   0.000004   0.000000   0.000000
    28  H    0.000002   0.000006   0.000000   0.000030   0.000000   0.000000
    29  H    0.000003  -0.000002   0.000000  -0.000002   0.000000   0.000000
    30  H   -0.001564   0.000853   0.363144  -0.000003   0.002420  -0.000005
    31  H    0.003607  -0.000020   0.368267   0.000001  -0.002127  -0.000011
    32  H    0.003061  -0.079725   0.000001   0.386378  -0.000047   0.004977
    33  H    0.002824  -0.000499  -0.001982   0.000001   0.366891   0.002681
    34  H    0.000028   0.000006  -0.040789   0.000000   0.002281   0.000000
    35  H    0.002591   0.000072  -0.039301   0.000000  -0.000121  -0.000004
    36  H    0.000008   0.000001  -0.036711   0.000000  -0.000013   0.000000
    37  H    0.000000   0.000005   0.000000   0.000000  -0.000300  -0.000098
              19         20         21         22         23         24
     1  O   -0.113993   0.000000  -0.003943   0.000000   0.000000   0.000000
     2  O   -0.094673   0.000000   0.220750   0.000000   0.000000   0.000000
     3  O   -0.113827   0.000000   0.519713   0.000000   0.000000   0.000000
     4  N    0.000000   0.000003   0.000000   0.000962   0.002352   0.000963
     5  N   -0.018677  -0.054213   0.004449   0.000000   0.000000   0.000000
     6  N   -0.000314  -0.002294   0.000000   0.000000   0.000000   0.000000
     7  N   -0.000041  -0.000001   0.000000   0.000000   0.000000  -0.000001
     8  C    0.000000   0.000000   0.000000   0.371432   0.376899  -0.044918
     9  C    0.000000   0.000000   0.000000  -0.044599  -0.031375   0.371613
    10  C    0.000000  -0.000025   0.000000  -0.042139  -0.034661   0.002260
    11  C    0.000000   0.000000   0.000000   0.002302   0.003947  -0.041642
    12  C   -0.000082  -0.000030   0.000000  -0.000140  -0.000043  -0.000151
    13  C   -0.018976  -0.001341  -0.000460   0.000000   0.000000   0.000000
    14  C   -0.179229  -0.000218   0.005774   0.000000   0.000000   0.000000
    15  C    0.001972   0.268227  -0.000037   0.000000   0.000000   0.000000
    16  C    0.011187   0.000003   0.000003   0.000000   0.000000   0.000000
    17  C    0.319717  -0.000013  -0.093128   0.000000   0.000000   0.000000
    18  C   -0.068836   0.000000  -0.037749   0.000000   0.000000   0.000000
    19  C    6.450815  -0.000055   0.065048   0.000000   0.000000   0.000000
    20  C   -0.000055   5.357619   0.000002   0.000000   0.000000   0.000000
    21  C    0.065048   0.000002   4.692795   0.000000   0.000000   0.000000
    22  H    0.000000   0.000000   0.000000   0.532585  -0.026663   0.003594
    23  H    0.000000   0.000000   0.000000  -0.026663   0.513127  -0.004247
    24  H    0.000000   0.000000   0.000000   0.003594  -0.004247   0.532287
    25  H    0.000000   0.000000   0.000000  -0.004254   0.000222  -0.025938
    26  H    0.000000   0.000027   0.000000  -0.004775   0.000606  -0.000036
    27  H    0.000000   0.000001   0.000000   0.003392  -0.002111   0.001136
    28  H    0.000000   0.000000   0.000000  -0.000032  -0.000048  -0.004705
    29  H    0.000000   0.000000   0.000000   0.001019  -0.000112   0.003281
    30  H   -0.000105  -0.045905   0.000001   0.000000   0.000000   0.000000
    31  H    0.000439  -0.048213  -0.000008   0.000000   0.000000   0.000000
    32  H    0.000927   0.000000   0.000003   0.000000   0.000000   0.000000
    33  H   -0.054274   0.000166   0.000901   0.000000   0.000000   0.000000
    34  H   -0.000053   0.366592   0.000000   0.000000   0.000000   0.000000
    35  H    0.000013   0.362570   0.000000   0.000000   0.000000   0.000000
    36  H    0.000000   0.351892   0.000000   0.000000   0.000000   0.000000
    37  H    0.012685   0.000000  -0.031150   0.000000   0.000000   0.000000
              25         26         27         28         29         30
     1  O    0.000000   0.000000   0.000000   0.000000   0.000000   0.000000
     2  O    0.000000   0.000000   0.000000   0.000000   0.000000   0.000000
     3  O    0.000000   0.000000   0.000000   0.000000   0.000000   0.000000
     4  N    0.002342  -0.038142  -0.045043  -0.037572  -0.043384  -0.000064
     5  N    0.000000  -0.000016  -0.000001   0.000000   0.000000  -0.035383
     6  N    0.000000   0.006953   0.001851   0.000104   0.000026   0.018043
     7  N    0.000000   0.000094   0.000016   0.006387   0.001789   0.000013
     8  C   -0.031637  -0.029677  -0.044398   0.004218  -0.000721   0.000001
     9  C    0.377385   0.004376  -0.001038  -0.030507  -0.043729   0.000000
    10  C    0.004099   0.367745   0.365757   0.002357   0.003040   0.000234
    11  C   -0.035335   0.002481   0.003011   0.370005   0.367913   0.000000
    12  C   -0.000047  -0.000925  -0.001633  -0.000833  -0.001746   0.000099
    13  C    0.000000  -0.000045  -0.000021   0.000002   0.000003  -0.001564
    14  C    0.000000   0.000006  -0.000002   0.000006  -0.000002   0.000853
    15  C    0.000000   0.000033  -0.000020   0.000000   0.000000   0.363144
    16  C    0.000000   0.000000   0.000004   0.000030  -0.000002  -0.000003
    17  C    0.000000   0.000000   0.000000   0.000000   0.000000   0.002420
    18  C    0.000000   0.000000   0.000000   0.000000   0.000000  -0.000005
    19  C    0.000000   0.000000   0.000000   0.000000   0.000000  -0.000105
    20  C    0.000000   0.000027   0.000001   0.000000   0.000000  -0.045905
    21  C    0.000000   0.000000   0.000000   0.000000   0.000000   0.000001
    22  H   -0.004254  -0.004775   0.003392  -0.000032   0.001019   0.000000
    23  H    0.000222   0.000606  -0.002111  -0.000048  -0.000112   0.000000
    24  H   -0.025938  -0.000036   0.001136  -0.004705   0.003281   0.000000
    25  H    0.510948  -0.000053  -0.000112   0.000756  -0.002414   0.000000
    26  H   -0.000053   0.512219  -0.039707  -0.000130   0.000199   0.000042
    27  H   -0.000112  -0.039707   0.552359   0.000248  -0.000219   0.000194
    28  H    0.000756  -0.000130   0.000248   0.500357  -0.038122   0.000000
    29  H   -0.002414   0.000199  -0.000219  -0.038122   0.540252   0.000000
    30  H    0.000000   0.000042   0.000194   0.000000   0.000000   0.474289
    31  H    0.000000   0.000001   0.000000   0.000000   0.000000  -0.022289
    32  H    0.000000   0.000000   0.000000  -0.000011  -0.000001   0.000000
    33  H    0.000000   0.000000   0.000000   0.000000   0.000000   0.000079
    34  H    0.000000   0.000000   0.000000   0.000000   0.000000   0.003054
    35  H    0.000000   0.000551  -0.000008   0.000000   0.000000  -0.002415
    36  H    0.000000  -0.000003   0.000000   0.000000   0.000000   0.000062
    37  H    0.000000   0.000000   0.000000   0.000000   0.000000   0.000000
              31         32         33         34         35         36
     1  O    0.000000   0.011402  -0.000003   0.000000   0.000000   0.000000
     2  O    0.000000   0.000000   0.000239   0.000000   0.000000   0.000000
     3  O   -0.000002   0.000000   0.018909   0.000000   0.000000   0.000000
     4  N    0.000000  -0.000026   0.000000   0.000000  -0.000019   0.000000
     5  N   -0.035215  -0.000024  -0.034470  -0.001237  -0.002777   0.002675
     6  N    0.000359  -0.000179  -0.000036   0.000002   0.004441   0.000000
     7  N    0.000000  -0.035688   0.000000   0.000000   0.000003   0.000000
     8  C    0.000000   0.000000   0.000000   0.000000   0.000001   0.000000
     9  C    0.000000   0.000000   0.000000   0.000000   0.000000   0.000000
    10  C    0.000000   0.000001   0.000000   0.000000   0.000000   0.000000
    11  C    0.000000  -0.000014   0.000000   0.000000   0.000000   0.000000
    12  C    0.000000   0.003795   0.000001   0.000000   0.000072   0.000000
    13  C    0.003607   0.003061   0.002824   0.000028   0.002591   0.000008
    14  C   -0.000020  -0.079725  -0.000499   0.000006   0.000072   0.000001
    15  C    0.368267   0.000001  -0.001982  -0.040789  -0.039301  -0.036711
    16  C    0.000001   0.386378   0.000001   0.000000   0.000000   0.000000
    17  C   -0.002127  -0.000047   0.366891   0.002281  -0.000121  -0.000013
    18  C   -0.000011   0.004977   0.002681   0.000000  -0.000004   0.000000
    19  C    0.000439   0.000927  -0.054274  -0.000053   0.000013   0.000000
    20  C   -0.048213   0.000000   0.000166   0.366592   0.362570   0.351892
    21  C   -0.000008   0.000003   0.000901   0.000000   0.000000   0.000000
    22  H    0.000000   0.000000   0.000000   0.000000   0.000000   0.000000
    23  H    0.000000   0.000000   0.000000   0.000000   0.000000   0.000000
    24  H    0.000000   0.000000   0.000000   0.000000   0.000000   0.000000
    25  H    0.000000   0.000000   0.000000   0.000000   0.000000   0.000000
    26  H    0.000001   0.000000   0.000000   0.000000   0.000551  -0.000003
    27  H    0.000000   0.000000   0.000000   0.000000  -0.000008   0.000000
    28  H    0.000000  -0.000011   0.000000   0.000000   0.000000   0.000000
    29  H    0.000000  -0.000001   0.000000   0.000000   0.000000   0.000000
    30  H   -0.022289   0.000000   0.000079   0.003054  -0.002415   0.000062
    31  H    0.520137   0.000000   0.002366  -0.002536   0.003347  -0.000377
    32  H    0.000000   0.460729   0.000000   0.000000   0.000000   0.000000
    33  H    0.002366   0.000000   0.439652   0.000442  -0.000004  -0.000019
    34  H   -0.002536   0.000000   0.000442   0.519692  -0.025365  -0.025046
    35  H    0.003347   0.000000  -0.000004  -0.025365   0.505004  -0.023760
    36  H   -0.000377   0.000000  -0.000019  -0.025046  -0.023760   0.534963
    37  H    0.000000   0.000000  -0.000017   0.000000   0.000000   0.000000
              37
     1  O    0.000166
     2  O    0.239366
     3  O    0.005737
     4  N    0.000000
     5  N    0.000000
     6  N    0.000000
     7  N    0.000000
     8  C    0.000000
     9  C    0.000000
    10  C    0.000000
    11  C    0.000000
    12  C    0.000000
    13  C    0.000000
    14  C    0.000005
    15  C    0.000000
    16  C    0.000000
    17  C   -0.000300
    18  C   -0.000098
    19  C    0.012685
    20  C    0.000000
    21  C   -0.031150
    22  H    0.000000
    23  H    0.000000
    24  H    0.000000
    25  H    0.000000
    26  H    0.000000
    27  H    0.000000
    28  H    0.000000
    29  H    0.000000
    30  H    0.000000
    31  H    0.000000
    32  H    0.000000
    33  H   -0.000017
    34  H    0.000000
    35  H    0.000000
    36  H    0.000000
    37  H    0.412126
 Mulliken charges:
               1
     1  O   -0.495206
     2  O   -0.538737
     3  O   -0.516183
     4  N   -0.698905
     5  N   -0.798597
     6  N   -0.670270
     7  N   -0.577759
     8  C   -0.409138
     9  C   -0.412335
    10  C   -0.148354
    11  C   -0.145757
    12  C    0.831855
    13  C    0.685510
    14  C   -0.132296
    15  C   -0.210796
    16  C    0.124682
    17  C    0.213467
    18  C    0.377412
    19  C   -0.199668
    20  C   -0.554794
    21  C    0.657039
    22  H    0.207318
    23  H    0.202108
    24  H    0.206504
    25  H    0.204037
    26  H    0.218177
    27  H    0.206346
    28  H    0.227491
    29  H    0.212929
    30  H    0.245206
    31  H    0.212274
    32  H    0.244440
    33  H    0.256154
    34  H    0.202929
    35  H    0.215110
    36  H    0.196327
    37  H    0.361480
 Sum of Mulliken charges =   0.00000
 Mulliken charges with hydrogens summed into heavy atoms:
               1
     1  O   -0.495206
     2  O   -0.177256
     3  O   -0.516183
     4  N   -0.698905
     5  N   -0.798597
     6  N   -0.670270
     7  N   -0.577759
     8  C    0.000287
     9  C   -0.001794
    10  C    0.276169
    11  C    0.294663
    12  C    0.831855
    13  C    0.685510
    14  C   -0.132296
    15  C    0.246684
    16  C    0.369122
    17  C    0.469621
    18  C    0.377412
    19  C   -0.199668
    20  C    0.059573
    21  C    0.657039
 Electronic spatial extent (au):  <R**2>=           7645.8036
 Charge=              0.0000 electrons
 Dipole moment (field-independent basis, Debye):
    X=              5.5293    Y=              4.4658    Z=             -0.8732  Tot=              7.1609
 Quadrupole moment (field-independent basis, Debye-Ang):
   XX=           -111.3339   YY=           -123.4226   ZZ=           -121.1224
   XY=             -2.1938   XZ=              1.9247   YZ=              0.5341
 Traceless Quadrupole moment (field-independent basis, Debye-Ang):
   XX=              7.2924   YY=             -4.7963   ZZ=             -2.4961
   XY=             -2.1938   XZ=              1.9247   YZ=              0.5341
 Octapole moment (field-independent basis, Debye-Ang**2):
  XXX=             52.3520  YYY=             43.9040  ZZZ=             -0.9058  XYY=             19.0672
  XXY=            -28.6542  XXZ=            -13.3242  XZZ=            -10.0313  YZZ=             -0.1636
  YYZ=             -6.3393  XYZ=             -3.6926
 Hexadecapole moment (field-independent basis, Debye-Ang**3):
 XXXX=          -6846.5205 YYYY=          -1882.0478 ZZZZ=           -220.8600 XXXY=            307.8308
 XXXZ=             61.6013 YYYX=            -52.1572 YYYZ=             -3.5328 ZZZX=              3.4970
 ZZZY=             -4.5272 XXYY=          -1699.5184 XXZZ=          -1299.2661 YYZZ=           -352.7103
 XXYZ=             11.4488 YYXZ=             10.3040 ZZXY=              8.5979
 N-N= 1.659185493280D+03 E-N=-5.606278953056D+03  KE= 9.744573411574D+02
 PrsmSu:  requested number of processors reduced to:   9 ShMem   1 Linda.
 Calling FoFJK, ICntrl=      2127 FMM=F ISym2X=0 I1Cent= 0 IOpClX= 0 NMat=1 NMatS=1 NMatT=0.
 ***** Axes restored to original set *****
 -------------------------------------------------------------------
 Center     Atomic                   Forces (Hartrees/Bohr)
 Number     Number              X              Y              Z
 -------------------------------------------------------------------
      1        8          -0.000208634   -0.004566269    0.000199979
      2        8          -0.006185467   -0.007196889   -0.000788855
      3        8           0.000435883    0.002966951    0.001513523
      4        7           0.012635339   -0.002661875   -0.000629089
      5        7          -0.000051993   -0.007444326   -0.002022979
      6        7           0.001598771   -0.001885354   -0.000469670
      7        7          -0.000275926    0.000567740    0.000368869
      8        6          -0.009485923    0.010287585   -0.006429886
      9        6          -0.013704891   -0.007247776    0.005736015
     10        6           0.010415962    0.016170976    0.005495632
     11        6           0.003652516   -0.018433082   -0.005904883
     12        6          -0.011854880    0.004603195    0.000706814
     13        6           0.002628674    0.001349608   -0.000014323
     14        6          -0.004086816    0.002721737    0.000621028
     15        6          -0.004754441    0.005939883    0.013808693
     16        6           0.006873269   -0.008269540   -0.001432509
     17        6           0.012140622   -0.002585712   -0.000518554
     18        6           0.004944046   -0.000843462   -0.000210749
     19        6          -0.005967549    0.007972722    0.001901897
     20        6          -0.001678681    0.005623723   -0.010098130
     21        6          -0.012849299    0.008522969   -0.002316281
     22        1           0.001533582   -0.001685758    0.002237696
     23        1           0.002273679   -0.002001222    0.000238554
     24        1           0.001565996    0.000740027   -0.002615790
     25        1           0.002452091    0.001440717    0.001105924
     26        1          -0.002172311   -0.002718112    0.001168040
     27        1          -0.001717359   -0.001103428   -0.002972129
     28        1          -0.001106811    0.003355068   -0.001050762
     29        1          -0.000703834    0.002314831    0.003069742
     30        1           0.002477685   -0.000000422   -0.002798884
     31        1          -0.001770541   -0.000337946   -0.002233462
     32        1          -0.000049940    0.006300485    0.000675843
     33        1          -0.000776666   -0.005288506   -0.000771426
     34        1          -0.001534612   -0.001101917    0.001653952
     35        1           0.001659836   -0.000084932    0.002436252
     36        1           0.000635355   -0.002053639   -0.000112585
     37        1           0.013013268   -0.003368049    0.000452491
 -------------------------------------------------------------------
 Cartesian Forces:  Max     0.018433082 RMS     0.005423139

 GradGradGradGradGradGradGradGradGradGradGradGradGradGradGradGradGradGrad
 Berny optimization.
 FormGI is forming the generalized inverse of G from B-inverse, IUseBI=4.
 Internal  Forces:  Max     0.012380965 RMS     0.002821436
 Search for a local minimum.
 Step number   1 out of a maximum of  218
 All quantities printed in internal units (Hartrees-Bohrs-Radians)
 Mixed Optimization -- RFO/linear search
 Second derivative matrix not updated -- first step.
 ITU=  0
     Eigenvalues ---    0.00482   0.00523   0.00666   0.00721   0.01074
     Eigenvalues ---    0.01118   0.01133   0.01334   0.01453   0.01476
     Eigenvalues ---    0.01597   0.01722   0.01905   0.01995   0.02158
     Eigenvalues ---    0.02177   0.02217   0.02251   0.02306   0.02328
     Eigenvalues ---    0.02330   0.02340   0.02544   0.03014   0.04200
     Eigenvalues ---    0.04558   0.04894   0.05174   0.05341   0.05552
     Eigenvalues ---    0.05553   0.05771   0.05838   0.06091   0.06310
     Eigenvalues ---    0.06862   0.06917   0.08380   0.08409   0.09048
     Eigenvalues ---    0.09593   0.09883   0.11335   0.12867   0.15998
     Eigenvalues ---    0.16000   0.16000   0.16000   0.16000   0.16000
     Eigenvalues ---    0.20861   0.21792   0.22012   0.23288   0.23477
     Eigenvalues ---    0.24991   0.24995   0.24997   0.24997   0.24999
     Eigenvalues ---    0.24999   0.25000   0.25000   0.25000   0.25000
     Eigenvalues ---    0.25000   0.27740   0.27880   0.28782   0.30224
     Eigenvalues ---    0.33216   0.33313   0.33636   0.33655   0.33752
     Eigenvalues ---    0.33837   0.33849   0.33872   0.33914   0.33937
     Eigenvalues ---    0.33955   0.34032   0.34066   0.34390   0.34424
     Eigenvalues ---    0.34454   0.34725   0.34800   0.34945   0.35336
     Eigenvalues ---    0.35450   0.40369   0.43403   0.45423   0.48784
     Eigenvalues ---    0.49300   0.50428   0.51827   0.51986   0.53411
     Eigenvalues ---    0.54620   0.55355   0.58736   0.85479   0.88412
 RFO step:  Lambda=-6.08466445D-03 EMin= 4.81757749D-03
 Linear search not attempted -- first point.
 Iteration  1 RMS(Cart)=  0.05205688 RMS(Int)=  0.00163525
 Iteration  2 RMS(Cart)=  0.00273805 RMS(Int)=  0.00005884
 Iteration  3 RMS(Cart)=  0.00000717 RMS(Int)=  0.00005851
 Iteration  4 RMS(Cart)=  0.00000000 RMS(Int)=  0.00005851
 Variable       Old X    -DE/DX   Delta X   Delta X   Delta X     New X
                                 (Linear)    (Quad)   (Total)
    R1        2.35089   0.00413   0.00000   0.00480   0.00480   2.35569
    R2        2.56572   0.01238   0.00000   0.02292   0.02292   2.58864
    R3        1.86136   0.01224   0.00000   0.02399   0.02399   1.88535
    R4        2.33674   0.00272   0.00000   0.00305   0.00305   2.33979
    R5        2.76854   0.00943   0.00000   0.02651   0.02652   2.79506
    R6        2.77393   0.00983   0.00000   0.02769   0.02768   2.80161
    R7        2.55472  -0.00583   0.00000  -0.01056  -0.01056   2.54415
    R8        2.63489  -0.00060   0.00000  -0.00092  -0.00094   2.63396
    R9        2.78433   0.00944   0.00000   0.02627   0.02627   2.81060
   R10        2.56836   0.00524   0.00000   0.00988   0.00989   2.57825
   R11        2.56535   0.00130   0.00000   0.00265   0.00265   2.56799
   R12        2.53102   0.00143   0.00000   0.00234   0.00234   2.53336
   R13        2.59153   0.00290   0.00000   0.00603   0.00602   2.59756
   R14        2.51345   0.00363   0.00000   0.00615   0.00614   2.51959
   R15        2.89781   0.00982   0.00000   0.03237   0.03236   2.93017
   R16        2.89033   0.00875   0.00000   0.02848   0.02849   2.91882
   R17        2.07916  -0.00262   0.00000  -0.00763  -0.00763   2.07153
   R18        2.07277  -0.00254   0.00000  -0.00734  -0.00734   2.06542
   R19        2.89246   0.00888   0.00000   0.02876   0.02876   2.92122
   R20        2.07949  -0.00287   0.00000  -0.00838  -0.00838   2.07112
   R21        2.07437  -0.00303   0.00000  -0.00876  -0.00876   2.06561
   R22        2.07586  -0.00351   0.00000  -0.01017  -0.01017   2.06569
   R23        2.08675  -0.00336   0.00000  -0.00993  -0.00993   2.07682
   R24        2.07475  -0.00348   0.00000  -0.01008  -0.01008   2.06467
   R25        2.08506  -0.00365   0.00000  -0.01077  -0.01077   2.07429
   R26        2.65994  -0.00086   0.00000  -0.00211  -0.00213   2.65781
   R27        2.65612  -0.00300   0.00000  -0.00688  -0.00689   2.64923
   R28        2.78254   0.00011   0.00000   0.00014   0.00013   2.78268
   R29        2.87519   0.00659   0.00000   0.02138   0.02138   2.89656
   R30        2.07219  -0.00355   0.00000  -0.01024  -0.01024   2.06195
   R31        2.07547  -0.00262   0.00000  -0.00760  -0.00760   2.06787
   R32        2.06677  -0.00603   0.00000  -0.01724  -0.01724   2.04953
   R33        2.59639  -0.00858   0.00000  -0.01705  -0.01703   2.57936
   R34        2.06124  -0.00478   0.00000  -0.01353  -0.01353   2.04771
   R35        2.78183  -0.00111   0.00000  -0.00354  -0.00352   2.77832
   R36        2.79065  -0.00564   0.00000  -0.01587  -0.01587   2.77478
   R37        2.07606  -0.00224   0.00000  -0.00652  -0.00652   2.06954
   R38        2.07406  -0.00245   0.00000  -0.00708  -0.00708   2.06698
   R39        2.07750  -0.00214   0.00000  -0.00622  -0.00622   2.07128
    A1        1.82879   0.01023   0.00000   0.06157   0.06157   1.89036
    A2        1.96872   0.00182   0.00000   0.01043   0.01043   1.97916
    A3        2.15762  -0.00061   0.00000  -0.00403  -0.00403   2.15359
    A4        2.15679  -0.00121   0.00000  -0.00636  -0.00637   2.15042
    A5        2.10500  -0.00290   0.00000  -0.01180  -0.01191   2.09309
    A6        2.08055  -0.00168   0.00000  -0.00558  -0.00565   2.07490
    A7        2.09764   0.00458   0.00000   0.01741   0.01730   2.11494
    A8        2.02261   0.00194   0.00000   0.00804   0.00804   2.03065
    A9        2.01948   0.00158   0.00000   0.00786   0.00785   2.02733
   A10        1.80350   0.00154   0.00000   0.00442   0.00440   1.80790
   A11        1.92264  -0.00103   0.00000  -0.00598  -0.00597   1.91667
   A12        1.97568  -0.00029   0.00000  -0.00259  -0.00259   1.97309
   A13        1.91981  -0.00024   0.00000  -0.00345  -0.00344   1.91638
   A14        1.96563  -0.00130   0.00000  -0.00792  -0.00792   1.95771
   A15        1.87649   0.00123   0.00000   0.01449   0.01449   1.89099
   A16        1.81202  -0.00024   0.00000  -0.00329  -0.00329   1.80873
   A17        1.92218  -0.00041   0.00000  -0.00384  -0.00388   1.91831
   A18        1.97109   0.00018   0.00000  -0.00014  -0.00011   1.97097
   A19        1.92326   0.00008   0.00000  -0.00354  -0.00355   1.91971
   A20        1.95176  -0.00007   0.00000   0.00261   0.00260   1.95436
[...]
    11  C    0.004070  -0.091194   0.261510  -0.070149   5.180184  -0.047498
    12  C    0.374138   0.004822   0.005236  -0.048517  -0.047498   4.466798
    13  C   -0.028391  -0.000003   0.000001   0.000198  -0.000098  -0.101158
    14  C   -0.048152   0.000000   0.000000   0.000027   0.000030  -0.018041
    15  C    0.000004   0.000000   0.000000  -0.000033   0.000000   0.000120
    16  C    0.403930   0.000001  -0.000001  -0.000124   0.000338  -0.110595
    17  C    0.000007   0.000000   0.000000   0.000000   0.000000  -0.000053
    18  C    0.003678   0.000000   0.000000   0.000000   0.000000   0.000966
    19  C   -0.000046   0.000000   0.000000   0.000000   0.000000  -0.000087
    20  C   -0.000001   0.000000   0.000000  -0.000059   0.000000  -0.000054
    21  C    0.000000   0.000000   0.000000   0.000000   0.000000   0.000000
    22  H    0.000000   0.370482  -0.043826  -0.041257   0.002028  -0.000145
    23  H    0.000000   0.376587  -0.031030  -0.034835   0.003756  -0.000044
    24  H   -0.000001  -0.044200   0.370342   0.002053  -0.041076  -0.000148
    25  H    0.000000  -0.031435   0.376371   0.003784  -0.034351  -0.000045
    26  H    0.000078  -0.030478   0.004050   0.367922   0.002281  -0.000758
    27  H    0.000015  -0.042602  -0.000792   0.365227   0.002875  -0.001586
    28  H    0.007199   0.003926  -0.028931   0.002259   0.369521  -0.000589
    29  H    0.001425  -0.000985  -0.044301   0.002823   0.367113  -0.001456
    30  H    0.000010   0.000001   0.000000   0.000213   0.000000   0.000061
    31  H    0.000000   0.000000   0.000000   0.000000   0.000000   0.000000
    32  H   -0.034456   0.000000   0.000000   0.000001  -0.000012   0.003626
    33  H    0.000000   0.000000   0.000000   0.000000   0.000000   0.000001
    34  H    0.000000   0.000000   0.000000   0.000000   0.000000   0.000000
    35  H    0.000008   0.000002   0.000000   0.000031   0.000000   0.000186
    36  H    0.000000   0.000000   0.000000   0.000000   0.000000   0.000001
    37  H    0.000000   0.000000   0.000000   0.000000   0.000000   0.000000
              13         14         15         16         17         18
     1  O    0.003102  -0.122375   0.000000  -0.000041   0.003307   0.642841
     2  O   -0.000002   0.000129   0.000000   0.000000   0.003298   0.002529
     3  O    0.000001  -0.000018   0.000003   0.000000   0.003206   0.001872
     4  N    0.001763  -0.000007  -0.000003   0.001682   0.000000   0.000002
     5  N    0.198787  -0.056347   0.231815   0.003793   0.241842  -0.029992
     6  N    0.411196  -0.055651  -0.003062  -0.028259   0.001546   0.002807
     7  N   -0.028391  -0.048152   0.000004   0.403930   0.000007   0.003678
     8  C   -0.000003   0.000000   0.000000   0.000001   0.000000   0.000000
     9  C    0.000001   0.000000   0.000000  -0.000001   0.000000   0.000000
    10  C    0.000198   0.000027  -0.000033  -0.000124   0.000000   0.000000
    11  C   -0.000098   0.000030   0.000000   0.000338   0.000000   0.000000
    12  C   -0.101158  -0.018041   0.000120  -0.110595  -0.000053   0.000966
    13  C    4.884661   0.172396  -0.050616  -0.107822  -0.072534   0.016464
    14  C    0.172396   6.351587   0.002800   0.236645  -0.009535  -0.065546
    15  C   -0.050616   0.002800   5.201100  -0.000077  -0.052269  -0.000064
    16  C   -0.107822   0.236645  -0.000077   5.135943  -0.000779  -0.055540
    17  C   -0.072534  -0.009535  -0.052269  -0.000779   5.107394  -0.024471
    18  C    0.016464  -0.065546  -0.000064  -0.055540  -0.024471   5.231054
    19  C   -0.020411  -0.178194   0.002042   0.011475   0.318026  -0.075993
    20  C   -0.002282  -0.000304   0.268660   0.000004   0.000364   0.000003
    21  C   -0.000455   0.005783  -0.000034  -0.000003  -0.096549  -0.038286
    22  H    0.000000   0.000000   0.000000   0.000000   0.000000   0.000000
    23  H    0.000000   0.000000   0.000000   0.000000   0.000000   0.000000
    24  H    0.000000   0.000000   0.000000   0.000000   0.000000   0.000000
    25  H    0.000000   0.000000   0.000000   0.000000   0.000000   0.000000
    26  H   -0.000058   0.000003   0.000023   0.000001   0.000000   0.000000
    27  H   -0.000018  -0.000002  -0.000021   0.000003   0.000000   0.000000
    28  H    0.000002   0.000009   0.000000   0.000033   0.000000   0.000000
    29  H    0.000003  -0.000003   0.000000  -0.000003   0.000000   0.000000
    30  H   -0.000995   0.000742   0.363754  -0.000001   0.002070  -0.000006
    31  H    0.003519  -0.000016   0.367154   0.000001  -0.001330  -0.000011
    32  H    0.003184  -0.082391   0.000001   0.385487  -0.000052   0.005243
    33  H    0.002796  -0.000538  -0.001537   0.000000   0.364674   0.002847
    34  H    0.000131   0.000009  -0.040538   0.000000   0.002028  -0.000001
    35  H    0.002993   0.000146  -0.039564  -0.000001  -0.000125  -0.000005
    36  H    0.000031   0.000001  -0.036098   0.000000  -0.000019   0.000000
    37  H    0.000000   0.000005   0.000000   0.000000  -0.000290  -0.000064
              19         20         21         22         23         24
     1  O   -0.111149   0.000000  -0.004060   0.000000   0.000000   0.000000
     2  O   -0.093087   0.000000   0.222654   0.000000   0.000000   0.000000
     3  O   -0.114768   0.000000   0.518507   0.000000   0.000000   0.000000
     4  N    0.000000   0.000007   0.000000   0.000986   0.002222   0.001068
     5  N   -0.018329  -0.052418   0.004637   0.000000   0.000000   0.000000
     6  N   -0.000333  -0.004540   0.000000  -0.000001   0.000000   0.000000
     7  N   -0.000046  -0.000001   0.000000   0.000000   0.000000  -0.000001
     8  C    0.000000   0.000000   0.000000   0.370482   0.376587  -0.044200
     9  C    0.000000   0.000000   0.000000  -0.043826  -0.031030   0.370342
    10  C    0.000000  -0.000059   0.000000  -0.041257  -0.034835   0.002053
    11  C    0.000000   0.000000   0.000000   0.002028   0.003756  -0.041076
    12  C   -0.000087  -0.000054   0.000000  -0.000145  -0.000044  -0.000148
    13  C   -0.020411  -0.002282  -0.000455   0.000000   0.000000   0.000000
    14  C   -0.178194  -0.000304   0.005783   0.000000   0.000000   0.000000
    15  C    0.002042   0.268660  -0.000034   0.000000   0.000000   0.000000
    16  C    0.011475   0.000004  -0.000003   0.000000   0.000000   0.000000
    17  C    0.318026   0.000364  -0.096549   0.000000   0.000000   0.000000
    18  C   -0.075993   0.000003  -0.038286   0.000000   0.000000   0.000000
    19  C    6.466592  -0.000052   0.063662   0.000000   0.000000   0.000000
    20  C   -0.000052   5.364941   0.000002   0.000000   0.000000   0.000000
    21  C    0.063662   0.000002   4.689208   0.000000   0.000000   0.000000
    22  H    0.000000   0.000000   0.000000   0.529576  -0.025577   0.003477
    23  H    0.000000   0.000000   0.000000  -0.025577   0.511148  -0.003724
    24  H    0.000000   0.000000   0.000000   0.003477  -0.003724   0.529796
    25  H    0.000000   0.000000   0.000000  -0.003725   0.000142  -0.025325
    26  H    0.000000   0.000030   0.000000  -0.004417   0.000677  -0.000026
    27  H    0.000000   0.000004   0.000000   0.003224  -0.001946   0.001076
    28  H    0.000000   0.000000   0.000000  -0.000031  -0.000049  -0.004238
    29  H    0.000000   0.000000   0.000000   0.001197  -0.000107   0.003245
    30  H   -0.000107  -0.046414   0.000001   0.000000   0.000000   0.000000
    31  H    0.000356  -0.045272  -0.000009   0.000000   0.000000   0.000000
    32  H    0.001083   0.000000   0.000003   0.000000   0.000000   0.000000
    33  H   -0.059420   0.000063   0.000607   0.000000   0.000000   0.000000
    34  H   -0.000060   0.365505   0.000000   0.000000   0.000000   0.000000
    35  H    0.000016   0.358675   0.000000   0.000000   0.000000   0.000000
    36  H    0.000000   0.352685   0.000000   0.000000   0.000000   0.000000
    37  H    0.011816   0.000000  -0.028614   0.000000   0.000000   0.000000
              25         26         27         28         29         30
     1  O    0.000000   0.000000   0.000000   0.000000   0.000000   0.000000
     2  O    0.000000   0.000000   0.000000   0.000000   0.000000   0.000000
     3  O    0.000000   0.000000   0.000000   0.000000   0.000000   0.000000
     4  N    0.002254  -0.037537  -0.042616  -0.036215  -0.041896  -0.000051
     5  N    0.000000  -0.000012  -0.000001   0.000000   0.000000  -0.034719
     6  N    0.000000   0.005687   0.001907   0.000110   0.000017   0.015542
     7  N    0.000000   0.000078   0.000015   0.007199   0.001425   0.000010
     8  C   -0.031435  -0.030478  -0.042602   0.003926  -0.000985   0.000001
     9  C    0.376371   0.004050  -0.000792  -0.028931  -0.044301   0.000000
    10  C    0.003784   0.367922   0.365227   0.002259   0.002823   0.000213
    11  C   -0.034351   0.002281   0.002875   0.369521   0.367113   0.000000
    12  C   -0.000045  -0.000758  -0.001586  -0.000589  -0.001456   0.000061
    13  C    0.000000  -0.000058  -0.000018   0.000002   0.000003  -0.000995
    14  C    0.000000   0.000003  -0.000002   0.000009  -0.000003   0.000742
    15  C    0.000000   0.000023  -0.000021   0.000000   0.000000   0.363754
    16  C    0.000000   0.000001   0.000003   0.000033  -0.000003  -0.000001
    17  C    0.000000   0.000000   0.000000   0.000000   0.000000   0.002070
    18  C    0.000000   0.000000   0.000000   0.000000   0.000000  -0.000006
    19  C    0.000000   0.000000   0.000000   0.000000   0.000000  -0.000107
    20  C    0.000000   0.000030   0.000004   0.000000   0.000000  -0.046414
    21  C    0.000000   0.000000   0.000000   0.000000   0.000000   0.000001
    22  H   -0.003725  -0.004417   0.003224  -0.000031   0.001197   0.000000
    23  H    0.000142   0.000677  -0.001946  -0.000049  -0.000107   0.000000
    24  H   -0.025325  -0.000026   0.001076  -0.004238   0.003245   0.000000
    25  H    0.509665  -0.000047  -0.000110   0.000557  -0.001793   0.000000
    26  H   -0.000047   0.510014  -0.038511  -0.000118   0.000218  -0.000019
    27  H   -0.000110  -0.038511   0.543427   0.000174  -0.000201   0.000197
    28  H    0.000557  -0.000118   0.000174   0.490257  -0.035919   0.000000
    29  H   -0.001793   0.000218  -0.000201  -0.035919   0.535811   0.000000
    30  H    0.000000  -0.000019   0.000197   0.000000   0.000000   0.476293
    31  H    0.000000   0.000001   0.000000   0.000000   0.000000  -0.022376
    32  H    0.000000   0.000000   0.000000  -0.000013   0.000000   0.000000
    33  H    0.000000   0.000000   0.000000   0.000000   0.000000   0.000061
    34  H    0.000000  -0.000001   0.000000   0.000000   0.000000   0.003089
    35  H    0.000000   0.001122  -0.000021   0.000000   0.000000  -0.002581
    36  H    0.000000  -0.000001   0.000000   0.000000   0.000000   0.000416
    37  H    0.000000   0.000000   0.000000   0.000000   0.000000   0.000000
              31         32         33         34         35         36
     1  O    0.000000   0.013358  -0.000002   0.000000   0.000000   0.000000
     2  O    0.000000   0.000000   0.000283   0.000000   0.000000   0.000000
     3  O   -0.000003   0.000000   0.022391   0.000000   0.000000   0.000000
     4  N    0.000000  -0.000026   0.000000   0.000000  -0.000057   0.000000
     5  N   -0.032675  -0.000026  -0.032743  -0.000941  -0.003608   0.002566
     6  N    0.000355  -0.000179  -0.000034   0.000019   0.008690   0.000015
     7  N    0.000000  -0.034456   0.000000   0.000000   0.000008   0.000000
     8  C    0.000000   0.000000   0.000000   0.000000   0.000002   0.000000
     9  C    0.000000   0.000000   0.000000   0.000000   0.000000   0.000000
    10  C    0.000000   0.000001   0.000000   0.000000   0.000031   0.000000
    11  C    0.000000  -0.000012   0.000000   0.000000   0.000000   0.000000
    12  C    0.000000   0.003626   0.000001   0.000000   0.000186   0.000001
    13  C    0.003519   0.003184   0.002796   0.000131   0.002993   0.000031
    14  C   -0.000016  -0.082391  -0.000538   0.000009   0.000146   0.000001
    15  C    0.367154   0.000001  -0.001537  -0.040538  -0.039564  -0.036098
    16  C    0.000001   0.385487   0.000000   0.000000  -0.000001   0.000000
    17  C   -0.001330  -0.000052   0.364674   0.002028  -0.000125  -0.000019
    18  C   -0.000011   0.005243   0.002847  -0.000001  -0.000005   0.000000
    19  C    0.000356   0.001083  -0.059420  -0.000060   0.000016   0.000000
    20  C   -0.045272   0.000000   0.000063   0.365505   0.358675   0.352685
    21  C   -0.000009   0.000003   0.000607   0.000000   0.000000   0.000000
    22  H    0.000000   0.000000   0.000000   0.000000   0.000000   0.000000
    23  H    0.000000   0.000000   0.000000   0.000000   0.000000   0.000000
    24  H    0.000000   0.000000   0.000000   0.000000   0.000000   0.000000
    25  H    0.000000   0.000000   0.000000   0.000000   0.000000   0.000000
    26  H    0.000001   0.000000   0.000000  -0.000001   0.001122  -0.000001
    27  H    0.000000   0.000000   0.000000   0.000000  -0.000021   0.000000
    28  H    0.000000  -0.000013   0.000000   0.000000   0.000000   0.000000
    29  H    0.000000   0.000000   0.000000   0.000000   0.000000   0.000000
    30  H   -0.022376   0.000000   0.000061   0.003089  -0.002581   0.000416
    31  H    0.514541   0.000000   0.002441  -0.002151   0.003292  -0.000534
    32  H    0.000000   0.459442   0.000000   0.000000   0.000000   0.000000
    33  H    0.002441   0.000000   0.438862   0.000261  -0.000002  -0.000012
    34  H   -0.002151   0.000000   0.000261   0.518613  -0.024618  -0.024383
    35  H    0.003292   0.000000  -0.000002  -0.024618   0.499760  -0.023358
    36  H   -0.000534   0.000000  -0.000012  -0.024383  -0.023358   0.533467
    37  H    0.000000   0.000000  -0.000016   0.000000   0.000000   0.000000
              37
     1  O    0.000203
     2  O    0.237152
     3  O    0.004383
     4  N    0.000000
     5  N    0.000000
     6  N    0.000000
     7  N    0.000000
     8  C    0.000000
     9  C    0.000000
    10  C    0.000000
    11  C    0.000000
    12  C    0.000000
    13  C    0.000000
    14  C    0.000005
    15  C    0.000000
    16  C    0.000000
    17  C   -0.000290
    18  C   -0.000064
    19  C    0.011816
    20  C    0.000000
    21  C   -0.028614
    22  H    0.000000
    23  H    0.000000
    24  H    0.000000
    25  H    0.000000
    26  H    0.000000
    27  H    0.000000
    28  H    0.000000
    29  H    0.000000
    30  H    0.000000
    31  H    0.000000
    32  H    0.000000
    33  H   -0.000016
    34  H    0.000000
    35  H    0.000000
    36  H    0.000000
    37  H    0.415385
 Mulliken charges:
               1
     1  O   -0.496012
     2  O   -0.539497
     3  O   -0.517025
     4  N   -0.688882
     5  N   -0.792330
     6  N   -0.673341
     7  N   -0.578295
     8  C   -0.409673
     9  C   -0.409531
    10  C   -0.158943
    11  C   -0.158304
    12  C    0.831597
    13  C    0.683615
    14  C   -0.133193
    15  C   -0.213558
    16  C    0.123909
    17  C    0.210243
    18  C    0.379675
    19  C   -0.203032
    20  C   -0.559545
    21  C    0.662947
    22  H    0.208008
    23  H    0.202779
    24  H    0.207683
    25  H    0.204057
    26  H    0.219878
    27  H    0.210300
    28  H    0.232056
    29  H    0.214812
    30  H    0.244819
    31  H    0.212716
    32  H    0.245726
    33  H    0.259016
    34  H    0.203039
    35  H    0.219021
    36  H    0.195225
    37  H    0.360040
 Sum of Mulliken charges =   0.00000
 Mulliken charges with hydrogens summed into heavy atoms:
               1
     1  O   -0.496012
     2  O   -0.179457
     3  O   -0.517025
     4  N   -0.688882
     5  N   -0.792330
     6  N   -0.673341
     7  N   -0.578295
     8  C    0.001115
     9  C    0.002209
    10  C    0.271235
    11  C    0.288563
    12  C    0.831597
    13  C    0.683615
    14  C   -0.133193
    15  C    0.243977
    16  C    0.369635
    17  C    0.469259
    18  C    0.379675
    19  C   -0.203032
    20  C    0.057740
    21  C    0.662947
 Electronic spatial extent (au):  <R**2>=           7623.5094
 Charge=              0.0000 electrons
 Dipole moment (field-independent basis, Debye):
    X=              5.6193    Y=              4.4396    Z=             -0.4412  Tot=              7.1750
 Quadrupole moment (field-independent basis, Debye-Ang):
   XX=           -110.2094   YY=           -123.3888   ZZ=           -121.1287
   XY=             -1.9253   XZ=             -0.3250   YZ=              0.4758
 Traceless Quadrupole moment (field-independent basis, Debye-Ang):
   XX=              8.0329   YY=             -5.1465   ZZ=             -2.8864
   XY=             -1.9253   XZ=             -0.3250   YZ=              0.4758
 Octapole moment (field-independent basis, Debye-Ang**2):
  XXX=             49.5274  YYY=             43.8405  ZZZ=              0.0108  XYY=             19.2717
  XXY=            -31.5729  XXZ=              2.9880  XZZ=             -8.8016  YZZ=             -0.5860
  YYZ=             -5.6561  XYZ=             -4.3704
 Hexadecapole moment (field-independent basis, Debye-Ang**3):
 XXXX=          -6790.2465 YYYY=          -1865.5979 ZZZZ=           -220.4262 XXXY=            317.1565
 XXXZ=            -37.8722 YYYX=            -50.8215 YYYZ=             -8.1592 ZZZX=             -1.5134
 ZZZY=             -6.2276 XXYY=          -1687.1713 XXZZ=          -1302.0597 YYZZ=           -349.2276
 XXYZ=              9.7211 YYXZ=              6.2373 ZZXY=              9.1861
 N-N= 1.659263872035D+03 E-N=-5.606503535043D+03  KE= 9.743194097435D+02
 1\1\GINC-NODE038\FOpt\RB3LYP\3-21G\C14H16N4O3\SUPERCOMPUTO1\06-Jul-202
 0\0\\# opt b3lyp/3-21g geom=connectivity\\Title Card Required\\0,1\O,-
 5.0843635281,4.3196105916,-6.7590129977\O,-2.6136648184,5.4536567876,-
 6.532218218\O,-2.4844971759,7.7078534544,-6.202000561\N,-10.9103875662
 ,6.5782816243,-6.5564748628\N,-6.5488654525,8.1683126942,-6.2235247067
 \N,-8.7469488691,7.3862709708,-6.3896695777\N,-9.1970006473,5.02645472
 51,-6.7456496619\C,-12.9816323186,7.7140598129,-6.7206754936\C,-13.237
 3331067,6.242919345,-6.295242854\C,-11.4871743427,7.9317667448,-6.3791
 917244\C,-11.9370375399,5.5171968059,-6.7163515431\C,-9.5886869098,6.3
 334898163,-6.5625079294\C,-7.4356586317,7.1086063354,-6.4015605307\C,-
 6.9217429758,5.8134945009,-6.5794209243\C,-7.0721769869,9.5554841683,-
 6.0691147193\C,-7.8828792138,4.8056492809,-6.7467968566\C,-5.209441916
 9,7.9154014951,-6.2359233839\C,-5.4821082263,5.4892206328,-6.596197038
 5\C,-4.6443972367,6.6825445072,-6.40350137\C,-7.390579144,10.191021809
 8,-7.4330863765\C,-3.1739895826,6.6935886545,-6.3659734118\H,-13.13223
 23393,7.8170947273,-7.8004598817\H,-13.6288509223,8.4244116001,-6.2012
 994216\H,-13.3563242724,6.1876339744,-5.2079845112\H,-14.1204166072,5.
 8123452526,-6.772690767\H,-10.9912677723,8.6460470091,-7.040153302\H,-
 11.3551736429,8.2667313475,-5.343234257\H,-11.690566125,4.656985076,-6
 .0924896988\H,-11.9807708688,5.1880789206,-7.7609906796\H,-7.977375591
 1,9.4872987184,-5.4651232821\H,-6.3103051181,10.1257907806,-5.53175092
 85\H,-7.5288122984,3.789929406,-6.8857629089\H,-4.549249406,8.76326361
 97,-6.0947560569\H,-6.5001636572,10.2128351998,-8.0689008802\H,-8.1730
 992695,9.6095715081,-7.9267356836\H,-7.7470915481,11.2169375438,-7.290
 691917\H,-1.6237343712,5.5681605581,-6.4908810818\\Version=ES64L-G09Re
 vD.01\State=1-A\HF=-982.4199212\RMSD=5.271e-09\RMSF=6.285e-06\Dipole=-
 2.1791168,1.7869201,0.164336\Quadrupole=6.0296502,-3.8684877,-2.161162
 5,1.2480036,-0.1040271,-0.353301\PG=C01 [X(C14H16N4O3)]\\@


 THE WHOLE OF SCIENCE IS NOTHING MORE THAN A REFINEMENT OF EVERYDAY THINKING.
                                                              -- A. EINSTEIN
 Job cpu time:       0 days  0 hours 49 minutes 27.5 seconds.
 File lengths (MBytes):  RWF=     33 Int=      0 D2E=      0 Chk=      5 Scr=      1
 Normal termination of Gaussian 09 at Mon Jul  6 10:56:52 2020.
