 Entering Gaussian System, Link 0=g09
 Input=norfloxacina.gjf
 Output=norfloxacina.log
 Initial command:
 /usr/local/cluster_programs/g09/l1.exe "/tmp/scratch/64203.prometeo/Gau-26971.inp" -scrdir="/tmp/scratch/64203.prometeo/"
 Entering Link 1 = /usr/local/cluster_programs/g09/l1.exe PID=     26972.
  
 Copyright (c) 1988,1990,1992,1993,1995,1998,2003,2009,2013,
            Gaussian, Inc.  All Rights Reserved.
  
 This is part of the Gaussian(R) 09 program.  It is based on
 the Gaussian(R) 03 system (copyright 2003, Gaussian, Inc.),
 the Gaussian(R) 98 system (copyright 1998, Gaussian, Inc.),
 the Gaussian(R) 94 system (copyright 1995, Gaussian, Inc.),
 the Gaussian 92(TM) system (copyright 1992, Gaussian, Inc.),
 the Gaussian 90(TM) system (copyright 1990, Gaussian, Inc.),
 the Gaussian 88(TM) system (copyright 1988, Gaussian, Inc.),
 the Gaussian 86(TM) system (copyright 1986, Carnegie Mellon
 University), and the Gaussian 82(TM) system (copyright 1983,
 Carnegie Mellon University). Gaussian is a federally registered
 trademark of Gaussian, Inc.
  
 This software contains proprietary and confidential information,
 including trade secrets, belonging to Gaussian, Inc.
  
 This software is provided under written license and may be
 used, copied, transmitted, or stored only in accord with that
 written license.
  
 The following legend is applicable only to US Government
 contracts under FAR:
  
                    RESTRICTED RIGHTS LEGEND
  
 Use, reproduction and disclosure by the US Government is
 subject to restrictions as set forth in subparagraphs (a)
 and (c) of the Commercial Computer Software - Restricted
 Rights clause in FAR 52.227-19.
  
 Gaussian, Inc.
 340 Quinnipiac St., Bldg. 40, Wallingford CT 06492
  
  
 ---------------------------------------------------------------
 Warning -- This program may not be used in any manner that
 competes with the business of Gaussian, Inc. or will provide
 assistance to any competitor of Gaussian, Inc.  The licensee
 of this program is prohibited from giving any competitor of
 Gaussian, Inc. access to this program.  By using this program,
 the user acknowledges that Gaussian, Inc. is engaged in the
 business of creating and licensing software in the field of
 computational chemistry and represents and warrants to the
 licensee that it is not a competitor of Gaussian, Inc. and that
 it will not use this program in any manner prohibited above.
 ---------------------------------------------------------------
  

 Cite this work as:
 Gaussian 09, Revision D.01,
 M. J. Frisch, G. W. Trucks, H. B. Schlegel, G. E. Scuseria, 
 M. A. Robb, J. R. Cheeseman, G. Scalmani, V. Barone, B. Mennucci, 
 G. A. Petersson, H. Nakatsuji, M. Caricato, X. Li, H. P. Hratchian, 
 A. F. Izmaylov, J. Bloino, G. Zheng, J. L. Sonnenberg, M. Hada, 
 M. Ehara, K. Toyota, R. Fukuda, J. Hasegawa, M. Ishida, T. Nakajima, 
 Y. Honda, O. Kitao, H. Nakai, T. Vreven, J. A. Montgomery, Jr., 
 J. E. Peralta, F. Ogliaro, M. Bearpark, J. J. Heyd, E. Brothers, 
 K. N. Kudin, V. N. Staroverov, T. Keith, R. Kobayashi, J. Normand, 
 K. Raghavachari, A. Rendell, J. C. Burant, S. S. Iyengar, J. Tomasi, 
 M. Cossi, N. Rega, J. M. Millam, M. Klene, J. E. Knox, J. B. Cross, 
 V. Bakken, C. Adamo, J. Jaramillo, R. Gomperts, R. E. Stratmann, 
 O. Yazyev, A. J. Austin, R. Cammi, C. Pomelli, J. W. Ochterski, 
 R. L. Martin, K. Morokuma, V. G. Zakrzewski, G. A. Voth, 
 P. Salvador, J. J. Dannenberg, S. Dapprich, A. D. Daniels, 
 O. Farkas, J. B. Foresman, J. V. Ortiz, J. Cioslowski, 
 and D. J. Fox, Gaussian, Inc., Wallingford CT, 2013.
 
 ******************************************
 Gaussian 09:  ES64L-G09RevD.01 24-Apr-2013
                21-Jul-2020 
 ******************************************
 %nprocshared=20
 Will use up to   20 processors via shared memory.
 -----------------------------------------------------
 #opt M06/lanl2dz integral=ultrafine geom=connectivity
 -----------------------------------------------------
 1/14=-1,18=20,19=15,26=4,38=1,57=2/1,3;
 2/9=110,12=2,17=6,18=5,40=1/2;
 3/5=6,6=3,11=2,16=1,25=1,30=1,71=1,74=-54,75=-5/1,2,3;
 4//1;
 5/5=2,38=5/2;
 6/7=2,8=2,9=2,10=2,28=1/1;
 7//1,2,3,16;
 1/14=-1,18=20,19=15,26=4/3(2);
 2/9=110/2;
 99//99;
 2/9=110/2;
 3/5=6,6=3,11=2,16=1,25=1,30=1,71=1,74=-54,75=-5/1,2,3;
 4/5=5,16=3,69=1/1;
 5/5=2,38=5/2;
 7//1,2,3,16;
 1/14=-1,18=20,19=15,26=4/3(-5);
 2/9=110/2;
 6/7=2,8=2,9=2,10=2,19=2,28=1/1;
 99/9=1/99;
 -------------------
 Title Card Required
 -------------------
 Symbolic Z-matrix:
 Charge =  0 Multiplicity = 1
 F                     1.92067  -2.99726  -0.21309 
 H                     1.21604   1.48361  -0.56608 
 N                     3.06312  -0.44216  -0.63326 
 C                     3.64306   0.82116  -1.13257 
 C                     4.19474   1.66103   0.0385 
 N                     5.2109    0.83241   0.72841 
 C                     4.07832  -1.24852   0.09815 
 C                     4.63247  -0.42026   1.27318 
 H                     5.71335   1.36378   1.44485 
 H                     2.90317   1.36854  -1.71929 
 H                     4.48755   0.55977  -1.78012 
 H                     4.90104  -1.46344  -0.59223 
 H                     3.62782  -2.1753    0.43521 
 H                     5.42659  -0.98347   1.77426 
 H                     3.81158  -0.24407   1.99261 
 H                     4.67822   2.56422  -0.34838 
 H                     3.35328   1.95847   0.69229 
 O                    -2.97148  -2.38243   0.29028 
 O                    -5.4181   -1.17955   0.36365 
 O                    -5.5095    1.08503   0.10006 
 N                    -1.46284   1.42826  -0.34597 
 C                     0.8084    0.49259  -0.45598 
 C                    -0.57701   0.33351  -0.30388 
 C                    -1.11336  -0.9485   -0.0868 
 C                    -0.97343   2.82346  -0.51159 
 C                    -2.79522   1.21151  -0.18138 
 C                    -3.37606  -0.00832   0.02642 
 C                    -2.56066  -1.22064   0.09839 
 C                    -0.23441  -2.03673  -0.04913 
 C                     1.69964  -0.59544  -0.42904 
 C                    -0.43769   3.41104   0.80842 
 C                     1.11138  -1.87543  -0.22678 
 C                    -4.83805   0.04641   0.16052 
 H                    -0.20893   2.83199  -1.293 
 H                    -1.82045   3.41357  -0.87041 
 H                    -3.44381   2.07897  -0.22488 
 H                    -0.6597   -3.02054   0.10059 
 H                    -0.08576   4.43498   0.64355 
 H                    -1.23278   3.42925   1.55959 
 H                     0.39004   2.8105    1.19546 
 H                    -6.40143  -1.03073   0.43919 
 

 GradGradGradGradGradGradGradGradGradGradGradGradGradGradGradGradGradGrad
 Berny optimization.
 Initialization pass.
                           ----------------------------
                           !    Initial Parameters    !
                           ! (Angstroms and Degrees)  !
 --------------------------                            --------------------------
 ! Name  Definition              Value          Derivative Info.                !
 --------------------------------------------------------------------------------
 ! R1    R(1,32)                 1.3833         estimate D2E/DX2                !
 ! R2    R(2,22)                 1.0772         estimate D2E/DX2                !
 ! R3    R(3,4)                  1.477          estimate D2E/DX2                !
 ! R4    R(3,7)                  1.4886         estimate D2E/DX2                !
 ! R5    R(3,30)                 1.3872         estimate D2E/DX2                !
 ! R6    R(4,5)                  1.5431         estimate D2E/DX2                !
 ! R7    R(4,10)                 1.0915         estimate D2E/DX2                !
 ! R8    R(4,11)                 1.0958         estimate D2E/DX2                !
 ! R9    R(5,6)                  1.4816         estimate D2E/DX2                !
 ! R10   R(5,16)                 1.0951         estimate D2E/DX2                !
 ! R11   R(5,17)                 1.1063         estimate D2E/DX2                !
 ! R12   R(6,8)                  1.4834         estimate D2E/DX2                !
 ! R13   R(6,9)                  1.0238         estimate D2E/DX2                !
 ! R14   R(7,8)                  1.5407         estimate D2E/DX2                !
 ! R15   R(7,12)                 1.0953         estimate D2E/DX2                !
 ! R16   R(7,13)                 1.0842         estimate D2E/DX2                !
 ! R17   R(8,14)                 1.095          estimate D2E/DX2                !
 ! R18   R(8,15)                 1.1057         estimate D2E/DX2                !
 ! R19   R(18,28)                1.2471         estimate D2E/DX2                !
 ! R20   R(19,33)                1.3714         estimate D2E/DX2                !
 ! R21   R(19,41)                0.9974         estimate D2E/DX2                !
 ! R22   R(20,33)                1.2382         estimate D2E/DX2                !
 ! R23   R(21,23)                1.4089         estimate D2E/DX2                !
 ! R24   R(21,25)                1.4878         estimate D2E/DX2                !
 ! R25   R(21,26)                1.3599         estimate D2E/DX2                !
 ! R26   R(22,23)                1.4028         estimate D2E/DX2                !
 ! R27   R(22,30)                1.4067         estimate D2E/DX2                !
 ! R28   R(23,24)                1.4065         estimate D2E/DX2                !
 ! R29   R(24,28)                1.4843         estimate D2E/DX2                !
 ! R30   R(24,29)                1.3994         estimate D2E/DX2                !
 ! R31   R(25,31)                1.541          estimate D2E/DX2                !
 ! R32   R(25,34)                1.0932         estimate D2E/DX2                !
 ! R33   R(25,35)                1.0929         estimate D2E/DX2                !
 ! R34   R(26,27)                1.3669         estimate D2E/DX2                !
 ! R35   R(26,36)                1.084          estimate D2E/DX2                !
 ! R36   R(27,28)                1.4628         estimate D2E/DX2                !
 ! R37   R(27,33)                1.4691         estimate D2E/DX2                !
 ! R38   R(29,32)                1.367          estimate D2E/DX2                !
 ! R39   R(29,37)                1.0822         estimate D2E/DX2                !
 ! R40   R(30,32)                1.4231         estimate D2E/DX2                !
 ! R41   R(31,38)                1.0952         estimate D2E/DX2                !
 ! R42   R(31,39)                1.094          estimate D2E/DX2                !
 ! R43   R(31,40)                1.0934         estimate D2E/DX2                !
 ! A1    A(4,3,7)              111.2014         estimate D2E/DX2                !
 ! A2    A(4,3,30)             122.0197         estimate D2E/DX2                !
 ! A3    A(7,3,30)             122.5579         estimate D2E/DX2                !
 ! A4    A(3,4,5)              110.4479         estimate D2E/DX2                !
 ! A5    A(3,4,10)             110.1514         estimate D2E/DX2                !
 ! A6    A(3,4,11)             107.3575         estimate D2E/DX2                !
 ! A7    A(5,4,10)             112.1692         estimate D2E/DX2                !
 ! A8    A(5,4,11)             107.624          estimate D2E/DX2                !
 ! A9    A(10,4,11)            108.9283         estimate D2E/DX2                !
 ! A10   A(4,5,6)              107.1088         estimate D2E/DX2                !
 ! A11   A(4,5,16)             109.7941         estimate D2E/DX2                !
 ! A12   A(4,5,17)             108.8377         estimate D2E/DX2                !
 ! A13   A(6,5,16)             108.8433         estimate D2E/DX2                !
 ! A14   A(6,5,17)             113.3798         estimate D2E/DX2                !
 ! A15   A(16,5,17)            108.8349         estimate D2E/DX2                !
 ! A16   A(5,6,8)              112.0766         estimate D2E/DX2                !
 ! A17   A(5,6,9)              111.8502         estimate D2E/DX2                !
 ! A18   A(8,6,9)              111.8811         estimate D2E/DX2                !
 ! A19   A(3,7,8)              109.1969         estimate D2E/DX2                !
 ! A20   A(3,7,12)             107.9912         estimate D2E/DX2                !
 ! A21   A(3,7,13)             109.4164         estimate D2E/DX2                !
 ! A22   A(8,7,12)             108.4233         estimate D2E/DX2                !
 ! A23   A(8,7,13)             111.8313         estimate D2E/DX2                !
 ! A24   A(12,7,13)            109.8969         estimate D2E/DX2                !
 ! A25   A(6,8,7)              108.3083         estimate D2E/DX2                !
 ! A26   A(6,8,14)             108.6394         estimate D2E/DX2                !
 ! A27   A(6,8,15)             113.1973         estimate D2E/DX2                !
 ! A28   A(7,8,14)             109.472          estimate D2E/DX2                !
 ! A29   A(7,8,15)             108.3533         estimate D2E/DX2                !
 ! A30   A(14,8,15)            108.8238         estimate D2E/DX2                !
 ! A31   A(33,19,41)           107.1477         estimate D2E/DX2                !
 ! A32   A(23,21,25)           121.6801         estimate D2E/DX2                !
 ! A33   A(23,21,26)           119.2457         estimate D2E/DX2                !
 ! A34   A(25,21,26)           119.0281         estimate D2E/DX2                !
 ! A35   A(2,22,23)            119.2847         estimate D2E/DX2                !
 ! A36   A(2,22,30)            118.2788         estimate D2E/DX2                !
 ! A37   A(23,22,30)           122.4064         estimate D2E/DX2                !
 ! A38   A(21,23,22)           121.9781         estimate D2E/DX2                !
 ! A39   A(21,23,24)           118.2354         estimate D2E/DX2                !
 ! A40   A(22,23,24)           119.7824         estimate D2E/DX2                !
 ! A41   A(23,24,28)           123.9321         estimate D2E/DX2                !
 ! A42   A(23,24,29)           118.2584         estimate D2E/DX2                !
 ! A43   A(28,24,29)           117.8086         estimate D2E/DX2                !
 ! A44   A(21,25,31)           112.1218         estimate D2E/DX2                !
 ! A45   A(21,25,34)           108.4767         estimate D2E/DX2                !
 ! A46   A(21,25,35)           106.7352         estimate D2E/DX2                !
 ! A47   A(31,25,34)           111.4797         estimate D2E/DX2                !
 ! A48   A(31,25,35)           110.1698         estimate D2E/DX2                !
 ! A49   A(34,25,35)           107.6433         estimate D2E/DX2                !
 ! A50   A(21,26,27)           125.2367         estimate D2E/DX2                !
 ! A51   A(21,26,36)           116.9889         estimate D2E/DX2                !
 ! A52   A(27,26,36)           117.7734         estimate D2E/DX2                !
 ! A53   A(26,27,28)           120.6767         estimate D2E/DX2                !
 ! A54   A(26,27,33)           113.7959         estimate D2E/DX2                !
 ! A55   A(28,27,33)           125.5274         estimate D2E/DX2                !
 ! A56   A(18,28,24)           120.7447         estimate D2E/DX2                !
 ! A57   A(18,28,27)           126.5839         estimate D2E/DX2                !
 ! A58   A(24,28,27)           112.6714         estimate D2E/DX2                !
 ! A59   A(24,29,32)           121.5405         estimate D2E/DX2                !
 ! A60   A(24,29,37)           117.6351         estimate D2E/DX2                !
 ! A61   A(32,29,37)           120.8057         estimate D2E/DX2                !
 ! A62   A(3,30,22)            122.3064         estimate D2E/DX2                !
 ! A63   A(3,30,32)            121.7761         estimate D2E/DX2                !
 ! A64   A(22,30,32)           115.8801         estimate D2E/DX2                !
 ! A65   A(25,31,38)           109.8314         estimate D2E/DX2                !
 ! A66   A(25,31,39)           109.9896         estimate D2E/DX2                !
 ! A67   A(25,31,40)           110.9145         estimate D2E/DX2                !
 ! A68   A(38,31,39)           108.7441         estimate D2E/DX2                !
 ! A69   A(38,31,40)           108.8758         estimate D2E/DX2                !
 ! A70   A(39,31,40)           108.4375         estimate D2E/DX2                !
 ! A71   A(1,32,29)            118.6183         estimate D2E/DX2                !
 ! A72   A(1,32,30)            119.2724         estimate D2E/DX2                !
 ! A73   A(29,32,30)           122.1089         estimate D2E/DX2                !
 ! A74   A(19,33,20)           121.8513         estimate D2E/DX2                !
 ! A75   A(19,33,27)           113.6483         estimate D2E/DX2                !
 ! A76   A(20,33,27)           124.5003         estimate D2E/DX2                !
 ! D1    D(7,3,4,5)            -59.1299         estimate D2E/DX2                !
 ! D2    D(7,3,4,10)           176.4121         estimate D2E/DX2                !
 ! D3    D(7,3,4,11)            57.9405         estimate D2E/DX2                !
 ! D4    D(30,3,4,5)            98.2935         estimate D2E/DX2                !
 ! D5    D(30,3,4,10)          -26.1644         estimate D2E/DX2                !
 ! D6    D(30,3,4,11)         -144.636          estimate D2E/DX2                !
 ! D7    D(4,3,7,8)             58.3416         estimate D2E/DX2                !
 ! D8    D(4,3,7,12)           -59.3632         estimate D2E/DX2                !
 ! D9    D(4,3,7,13)          -178.9584         estimate D2E/DX2                !
 ! D10   D(30,3,7,8)           -98.94           estimate D2E/DX2                !
 ! D11   D(30,3,7,12)          143.3552         estimate D2E/DX2                !
 ! D12   D(30,3,7,13)           23.7601         estimate D2E/DX2                !
 ! D13   D(4,3,30,22)          -11.3403         estimate D2E/DX2                !
 ! D14   D(4,3,30,32)          166.3453         estimate D2E/DX2                !
 ! D15   D(7,3,30,22)          143.5299         estimate D2E/DX2                !
 ! D16   D(7,3,30,32)          -38.7845         estimate D2E/DX2                !
 ! D17   D(3,4,5,6)             58.3994         estimate D2E/DX2                !
 ! D18   D(3,4,5,16)           176.4296         estimate D2E/DX2                !
 ! D19   D(3,4,5,17)           -64.537          estimate D2E/DX2                !
 ! D20   D(10,4,5,6)          -178.3061         estimate D2E/DX2                !
 ! D21   D(10,4,5,16)          -60.2759         estimate D2E/DX2                !
 ! D22   D(10,4,5,17)           58.7575         estimate D2E/DX2                !
 ! D23   D(11,4,5,6)           -58.5062         estimate D2E/DX2                !
 ! D24   D(11,4,5,16)           59.5241         estimate D2E/DX2                !
 ! D25   D(11,4,5,17)          178.5575         estimate D2E/DX2                !
 ! D26   D(4,5,6,8)            -60.8883         estimate D2E/DX2                !
 ! D27   D(4,5,6,9)            172.5327         estimate D2E/DX2                !
 ! D28   D(16,5,6,8)          -179.5366         estimate D2E/DX2                !
 ! D29   D(16,5,6,9)            53.8845         estimate D2E/DX2                !
 ! D30   D(17,5,6,8)            59.1864         estimate D2E/DX2                !
 ! D31   D(17,5,6,9)           -67.3925         estimate D2E/DX2                !
 ! D32   D(5,6,8,7)             61.5425         estimate D2E/DX2                !
 ! D33   D(5,6,8,14)          -179.6307         estimate D2E/DX2                !
 ! D34   D(5,6,8,15)           -58.6319         estimate D2E/DX2                !
 ! D35   D(9,6,8,7)           -171.8954         estimate D2E/DX2                !
 ! D36   D(9,6,8,14)           -53.0686         estimate D2E/DX2                !
 ! D37   D(9,6,8,15)            67.9302         estimate D2E/DX2                !
 ! D38   D(3,7,8,6)            -57.9909         estimate D2E/DX2                !
 ! D39   D(3,7,8,14)          -176.2894         estimate D2E/DX2                !
 ! D40   D(3,7,8,15)            65.1641         estimate D2E/DX2                !
 ! D41   D(12,7,8,6)            59.4416         estimate D2E/DX2                !
 ! D42   D(12,7,8,14)          -58.8568         estimate D2E/DX2                !
 ! D43   D(12,7,8,15)         -177.4033         estimate D2E/DX2                !
 ! D44   D(13,7,8,6)          -179.2348         estimate D2E/DX2                !
 ! D45   D(13,7,8,14)           62.4667         estimate D2E/DX2                !
 ! D46   D(13,7,8,15)          -56.0797         estimate D2E/DX2                !
 ! D47   D(41,19,33,20)          0.0573         estimate D2E/DX2                !
 ! D48   D(41,19,33,27)       -179.9287         estimate D2E/DX2                !
 ! D49   D(25,21,23,22)         -1.972          estimate D2E/DX2                !
 ! D50   D(25,21,23,24)        177.2939         estimate D2E/DX2                !
 ! D51   D(26,21,23,22)       -179.4801         estimate D2E/DX2                !
 ! D52   D(26,21,23,24)         -0.2142         estimate D2E/DX2                !
 ! D53   D(23,21,25,31)        -79.3516         estimate D2E/DX2                !
 ! D54   D(23,21,25,34)         44.1927         estimate D2E/DX2                !
 ! D55   D(23,21,25,35)        159.9251         estimate D2E/DX2                !
 ! D56   D(26,21,25,31)         98.1617         estimate D2E/DX2                !
 ! D57   D(26,21,25,34)       -138.2939         estimate D2E/DX2                !
 ! D58   D(26,21,25,35)        -22.5616         estimate D2E/DX2                !
 ! D59   D(23,21,26,27)         -0.0807         estimate D2E/DX2                !
 ! D60   D(23,21,26,36)       -179.7297         estimate D2E/DX2                !
 ! D61   D(25,21,26,27)       -177.6554         estimate D2E/DX2                !
 ! D62   D(25,21,26,36)          2.6955         estimate D2E/DX2                !
 ! D63   D(2,22,23,21)           2.6917         estimate D2E/DX2                !
 ! D64   D(2,22,23,24)        -176.5631         estimate D2E/DX2                !
 ! D65   D(30,22,23,21)       -179.3392         estimate D2E/DX2                !
 ! D66   D(30,22,23,24)          1.406          estimate D2E/DX2                !
 ! D67   D(2,22,30,3)           -4.6667         estimate D2E/DX2                !
 ! D68   D(2,22,30,32)         177.5201         estimate D2E/DX2                !
 ! D69   D(23,22,30,3)         177.3447         estimate D2E/DX2                !
 ! D70   D(23,22,30,32)         -0.4685         estimate D2E/DX2                !
 ! D71   D(21,23,24,28)          0.1405         estimate D2E/DX2                !
 ! D72   D(21,23,24,29)        179.801          estimate D2E/DX2                !
 ! D73   D(22,23,24,28)        179.423          estimate D2E/DX2                !
 ! D74   D(22,23,24,29)         -0.9164         estimate D2E/DX2                !
 ! D75   D(23,24,28,18)       -179.8408         estimate D2E/DX2                !
 ! D76   D(23,24,28,27)          0.1955         estimate D2E/DX2                !
 ! D77   D(29,24,28,18)          0.4973         estimate D2E/DX2                !
 ! D78   D(29,24,28,27)       -179.4665         estimate D2E/DX2                !
 ! D79   D(23,24,29,32)         -0.4805         estimate D2E/DX2                !
 ! D80   D(23,24,29,37)       -178.9163         estimate D2E/DX2                !
 ! D81   D(28,24,29,32)        179.2011         estimate D2E/DX2                !
 ! D82   D(28,24,29,37)          0.7653         estimate D2E/DX2                !
 ! D83   D(21,25,31,38)        179.8464         estimate D2E/DX2                !
 ! D84   D(21,25,31,39)        -60.5043         estimate D2E/DX2                !
 ! D85   D(21,25,31,40)         59.4492         estimate D2E/DX2                !
 ! D86   D(34,25,31,38)         58.0033         estimate D2E/DX2                !
 ! D87   D(34,25,31,39)        177.6525         estimate D2E/DX2                !
 ! D88   D(34,25,31,40)        -62.394          estimate D2E/DX2                !
 ! D89   D(35,25,31,38)        -61.4383         estimate D2E/DX2                !
 ! D90   D(35,25,31,39)         58.211          estimate D2E/DX2                !
 ! D91   D(35,25,31,40)        178.1645         estimate D2E/DX2                !
 ! D92   D(21,26,27,28)          0.4542         estimate D2E/DX2                !
 ! D93   D(21,26,27,33)       -179.5312         estimate D2E/DX2                !
 ! D94   D(36,26,27,28)       -179.8993         estimate D2E/DX2                !
 ! D95   D(36,26,27,33)          0.1153         estimate D2E/DX2                !
 ! D96   D(26,27,28,18)        179.5628         estimate D2E/DX2                !
 ! D97   D(26,27,28,24)         -0.476          estimate D2E/DX2                !
 ! D98   D(33,27,28,18)         -0.4536         estimate D2E/DX2                !
 ! D99   D(33,27,28,24)        179.5076         estimate D2E/DX2                !
 ! D100  D(26,27,33,19)        179.7588         estimate D2E/DX2                !
 ! D101  D(26,27,33,20)         -0.2268         estimate D2E/DX2                !
 ! D102  D(28,27,33,19)         -0.2257         estimate D2E/DX2                !
 ! D103  D(28,27,33,20)        179.7886         estimate D2E/DX2                !
 ! D104  D(24,29,32,1)        -178.3061         estimate D2E/DX2                !
 ! D105  D(24,29,32,30)          1.4592         estimate D2E/DX2                !
 ! D106  D(37,29,32,1)           0.0805         estimate D2E/DX2                !
 ! D107  D(37,29,32,30)        179.8458         estimate D2E/DX2                !
 ! D108  D(3,30,32,1)            0.9767         estimate D2E/DX2                !
 ! D109  D(3,30,32,29)        -178.7871         estimate D2E/DX2                !
 ! D110  D(22,30,32,1)         178.8025         estimate D2E/DX2                !
 ! D111  D(22,30,32,29)         -0.9613         estimate D2E/DX2                !
 --------------------------------------------------------------------------------
 Trust Radius=3.00D-01 FncErr=1.00D-07 GrdErr=1.00D-06
 Number of steps in this run=    240 maximum allowed number of steps=    246.
 GradGradGradGradGradGradGradGradGradGradGradGradGradGradGradGradGradGrad

                          Input orientation:                          
 ---------------------------------------------------------------------
 Center     Atomic      Atomic             Coordinates (Angstroms)
 Number     Number       Type             X           Y           Z
 ---------------------------------------------------------------------
      1          9           0        1.920667   -2.997259   -0.213093
      2          1           0        1.216043    1.483613   -0.566076
      3          7           0        3.063119   -0.442156   -0.633263
      4          6           0        3.643056    0.821156   -1.132571
      5          6           0        4.194738    1.661033    0.038495
      6          7           0        5.210898    0.832406    0.728414
      7          6           0        4.078320   -1.248517    0.098146
      8          6           0        4.632466   -0.420255    1.273180
      9          1           0        5.713345    1.363784    1.444848
     10          1           0        2.903167    1.368538   -1.719290
     11          1           0        4.487546    0.559769   -1.780120
     12          1           0        4.901037   -1.463441   -0.592226
     13          1           0        3.627823   -2.175299    0.435212
     14          1           0        5.426591   -0.983465    1.774257
     15          1           0        3.811584   -0.244073    1.992608
     16          1           0        4.678218    2.564221   -0.348383
     17          1           0        3.353276    1.958470    0.692289
     18          8           0       -2.971483   -2.382432    0.290278
     19          8           0       -5.418100   -1.179550    0.363650
     20          8           0       -5.509497    1.085026    0.100058
     21          7           0       -1.462842    1.428261   -0.345972
     22          6           0        0.808397    0.492594   -0.455979
     23          6           0       -0.577013    0.333506   -0.303878
     24          6           0       -1.113362   -0.948495   -0.086802
     25          6           0       -0.973430    2.823463   -0.511586
     26          6           0       -2.795223    1.211507   -0.181379
     27          6           0       -3.376060   -0.008318    0.026419
     28          6           0       -2.560660   -1.220641    0.098387
     29          6           0       -0.234407   -2.036727   -0.049126
     30          6           0        1.699640   -0.595442   -0.429042
     31          6           0       -0.437685    3.411039    0.808417
     32          6           0        1.111375   -1.875433   -0.226784
     33          6           0       -4.838052    0.046412    0.160517
     34          1           0       -0.208928    2.831991   -1.292995
     35          1           0       -1.820449    3.413574   -0.870411
     36          1           0       -3.443812    2.078968   -0.224875
     37          1           0       -0.659703   -3.020540    0.100586
     38          1           0       -0.085756    4.434977    0.643552
     39          1           0       -1.232775    3.429253    1.559594
     40          1           0        0.390038    2.810503    1.195463
     41          1           0       -6.401432   -1.030734    0.439185
 ---------------------------------------------------------------------
                    Distance matrix (angstroms):
                    1          2          3          4          5
     1  F    0.000000
     2  H    4.549649   0.000000
     3  N    2.830246   2.669230   0.000000
     4  C    4.288631   2.578790   1.477022   0.000000
     5  C    5.189834   3.044603   2.480972   1.543095   0.000000
     6  N    5.135990   4.249546   2.844579   2.433417   1.481618
     7  C    2.794716   4.012276   1.488560   2.446971   2.912489
     8  C    4.025396   4.321981   2.469383   2.882303   2.459230
     9  H    6.012643   4.927870   3.821474   3.350169   2.091017
    10  H    4.721665   2.046835   2.117464   1.091468   2.200799
    11  H    4.657992   3.609726   2.085216   1.095813   2.146131
    12  H    3.373269   4.718579   2.103010   2.663432   3.264813
    13  H    2.002573   4.495208   2.112892   3.381851   3.898233
    14  H    4.505156   5.412240   3.416894   3.858407   3.394658
    15  H    4.002589   4.033435   2.737633   3.306034   2.755865
    16  H    6.209062   3.633423   3.424617   2.173657   1.095069
    17  H    5.237493   2.525220   2.757587   2.169693   1.106333
    18  O    4.956261   5.763247   6.405780   7.485960   8.232116
    19  O    7.582493   7.208931   8.571386   9.399258  10.029022
    20  O    8.483540   6.770192   8.738409   9.238952   9.721510
    21  N    5.572344   2.688482   4.905642   5.201683   5.675404
    22  C    3.670860   1.077226   2.447235   2.932750   3.616222
    23  C    4.164210   2.146286   3.736403   4.328223   4.964792
    24  C    3.663156   3.401614   4.242404   5.181584   5.916186
    25  C    6.507357   2.567481   5.193534   5.070187   5.325767
    26  C    6.320944   4.038847   6.104013   6.519860   7.007851
    27  C    6.086580   4.864598   6.487405   7.162351   7.752668
    28  C    4.830702   4.692333   5.724355   6.646073   7.344592
    29  C    2.365132   3.842374   3.709117   4.937213   5.770479
    30  C    2.421613   2.138952   1.387183   2.505707   3.396437
    31  C    6.904462   2.887736   5.401961   5.208395   5.011451
    32  C    1.383342   3.377760   2.455364   3.808077   4.699371
    33  C    7.421846   6.264627   7.955959   8.614029   9.176774
    34  H    6.299327   2.092146   4.675636   4.348215   4.747239
    35  H    7.451630   3.610769   6.226727   6.053036   6.330876
    36  H    7.385517   4.710108   6.990207   7.254633   7.654507
    37  H    2.599470   4.924455   4.587592   5.898562   6.744374
    38  H    7.745819   3.445059   5.944081   5.488019   5.136486
    39  H    7.374732   3.781626   6.184750   6.150094   5.907473
    40  H    6.169032   2.354982   4.590141   4.467591   4.139517
    41  H    8.576131   8.084455   9.543285  10.334005  10.940063
                    6          7          8          9         10
     6  N    0.000000
     7  C    2.451573   0.000000
     8  C    1.483413   1.540714   0.000000
     9  H    1.023764   3.363187   2.092980   0.000000
    10  H    3.406511   3.396032   3.891675   4.231890   0.000000
    11  H    2.624940   2.639176   3.209998   3.542519   1.779906
    12  H    2.666649   1.095294   2.154091   3.578088   3.644429
    13  H    3.411507   1.084198   2.188990   4.230115   4.210200
    14  H    2.106585   2.167357   1.094951   2.387533   4.909629
    15  H    2.171422   2.160797   1.105651   2.549890   4.147761
    16  H    2.107706   3.885388   3.396860   2.393369   2.541623
    17  H    2.172576   3.341176   2.762624   2.547533   2.523159
    18  O    8.802188   7.142997   7.914308   9.528557   7.253940
    19  O   10.823891   9.500381  10.120161  11.469377   8.948457
    20  O   10.741765   9.867708  10.319956  11.306562   8.611813
    21  N    6.785879   6.169834   6.572020   7.396543   4.577292
    22  C    4.571682   3.745787   4.294972   5.332038   2.598325
    23  C    5.900376   4.933208   5.494901   6.609699   3.896965
    24  C    6.620608   5.203632   5.928164   7.368617   4.915909
    25  C    6.614214   6.517129   6.718122   7.118375   4.313161
    26  C    8.066561   7.305850   7.742671   8.663921   5.904361
    27  C    8.656527   7.557183   8.115454   9.301177   6.661225
    28  C    8.062819   6.639039   7.332245   8.772193   6.313573
    29  C    6.203857   4.386636   5.296029   7.012217   4.922362
    30  C    3.963255   2.522410   3.395544   4.843538   2.640158
    31  C    6.209850   6.527653   6.371911   6.513944   4.660730
    32  C    5.005086   3.049814   4.094572   5.870691   3.995177
    33  C   10.095627   9.010129   9.547068  10.710600   8.075157
    34  H    6.120372   6.079993   6.371927   6.687655   3.465337
    35  H    7.658884   7.580809   7.805981   8.143716   5.216830
    36  H    8.795833   8.231584   8.585834   9.335576   6.559126
    37  H    7.050058   5.058551   6.011947   7.851438   5.938855
    38  H    6.406267   7.066760   6.799362   6.610891   4.890780
    39  H    6.996813   7.226693   7.021524   7.247614   5.666008
    40  H    5.231796   5.593136   5.333107   5.522027   4.109850
    41  H   11.764402  10.487561  11.082199  12.390032   9.848405
                   11         12         13         14         15
    11  H    0.000000
    12  H    2.382319   0.000000
    13  H    3.623178   1.784221   0.000000
    14  H    3.987101   2.471199   2.539503   0.000000
    15  H    3.916192   3.058616   2.487747   1.789588   0.000000
    16  H    2.470638   4.041184   4.917357   4.201397   3.757367
    17  H    3.058715   3.969259   4.150845   3.758227   2.598475
    18  O    8.281317   7.974956   6.604146   8.642161   7.313037
    19  O   10.283132  10.367202   9.100844  10.937805   9.418901
    20  O   10.185864  10.740259   9.707351  11.255204   9.603687
    21  N    6.182085   6.994393   6.285759   7.601058   6.007098
    22  C    3.910754   4.538099   3.982592   5.336705   3.944286
    23  C    5.280175   5.772451   4.951869   6.488168   4.986705
    24  C    6.042546   6.057526   4.925077   6.799687   5.392147
    25  C    6.046135   7.272786   6.859707   7.789612   6.211049
    26  C    7.484615   8.158220   7.287397   8.731589   7.105972
    27  C    8.088424   8.426769   7.342840   9.027320   7.455448
    28  C    7.508386   7.497521   6.270737   8.164617   6.719170
    29  C    5.659945   5.195806   3.894946   6.039949   4.873636
    30  C    3.306410   3.320993   2.638328   4.346867   3.232361
    31  C    6.252053   7.363716   6.919162   7.391498   5.728738
    32  C    4.443151   3.829468   2.619288   4.839510   3.857222
    33  C    9.539203   9.884135   8.756854  10.441633   8.846307
    34  H    5.239957   6.712195   6.540666   7.464905   6.035054
    35  H    6.983020   8.309094   7.913521   8.879629   7.300346
    36  H    8.223940   9.073043   8.279041   9.594742   7.934389
    37  H    6.545979   5.816045   4.382840   6.632784   5.592935
    38  H    6.465796   7.822186   7.584842   7.811784   6.237205
    39  H    7.218705   8.135873   7.503376   7.991578   6.255109
    40  H    5.541613   6.466184   5.993284   6.332145   4.655411
    41  H   11.226079  11.357678  10.094355  11.903226  10.360389
                   16         17         18         19         20
    16  H    0.000000
    17  H    1.790364   0.000000
    18  O    9.132097   7.681642   0.000000
    19  O   10.791592   9.321599   2.727314   0.000000
    20  O   10.304303   8.925379   4.301275   2.281696   0.000000
    21  N    6.245240   4.955209   4.147553   4.790439   4.085605
    22  C    4.390755   3.153367   4.807303   6.499009   6.369924
    23  C    5.709249   4.368069   3.669173   5.115765   5.005731
    24  C    6.778643   5.385934   2.377179   4.334405   4.847280
    25  C    5.659944   4.573610   5.633520   6.045266   4.896139
    26  C    7.596713   6.255021   3.629039   3.590779   2.731755
    27  C    8.463441   7.042414   2.422751   2.378116   2.398411
    28  C    8.180840   6.740483   1.247139   2.870020   3.743226
    29  C    6.737371   5.420587   2.779621   5.270276   6.131409
    30  C    4.343029   3.242586   5.052736   7.185525   7.421292
    31  C    5.312979   4.061382   6.344518   6.787920   5.624534
    32  C    5.696287   4.535375   4.146581   6.592944   7.259965
    33  C    9.856862   8.428321   3.065975   1.371387   1.238230
    34  H    4.984796   4.170574   6.109719   6.780295   5.752262
    35  H    6.574693   5.597034   6.022106   5.963454   4.469119
    36  H    8.137450   6.859746   4.515813   3.855141   2.315288
    37  H    7.738509   6.422200   2.405721   5.108893   6.354225
    38  H    5.213359   4.238208   7.411430   7.748235   6.398009
    39  H    6.271243   4.893596   6.197576   6.339424   5.090776
    40  H    4.564275   3.124088   6.251860   7.095555   6.243532
    41  H   11.674871  10.205573   3.689690   0.997393   2.320990
                   21         22         23         24         25
    21  N    0.000000
    22  C    2.458882   0.000000
    23  C    1.408884   1.402785   0.000000
    24  C    2.416252   2.430265   1.406527   0.000000
    25  C    1.487797   2.934442   2.529857   3.798380   0.000000
    26  C    1.359894   3.684877   2.388796   2.739199   2.454866
    27  C    2.421330   4.241851   2.839120   2.452866   3.752474
    28  C    2.901610   3.820084   2.551871   1.484261   4.387043
    29  C    3.688267   2.765942   2.408377   1.399368   4.937760
    30  C    3.755472   1.406720   2.462064   2.855653   4.340625
    31  C    2.512960   3.415954   3.275335   4.501499   1.540998
    32  C    4.189892   2.398307   2.781368   2.414180   5.148509
    33  C    3.682130   5.697502   4.295875   3.863201   4.806146
    34  H    2.107038   2.684832   2.712244   4.070009   1.093223
    35  H    2.084319   3.951545   3.369557   4.487946   1.092899
    36  H    2.088618   4.544367   3.357293   3.823035   2.596009
    37  H    4.542717   3.848012   3.379357   2.129388   5.884348
    38  H    3.451936   4.189375   4.238045   5.529119   2.172392
    39  H    2.772739   4.105226   3.672356   4.678628   2.173483
    40  H    2.778449   2.876628   3.052659   4.246702   2.184772
    41  H    5.572504   7.423172   6.028030   5.314801   6.724731
                   26         27         28         29         30
    26  C    0.000000
    27  C    1.366940   0.000000
    28  C    2.459397   1.462800   0.000000
    29  C    4.138393   3.740339   2.469658   0.000000
    30  C    4.850793   5.129804   4.338111   2.441757   0.000000
    31  C    3.372777   4.575759   5.144281   5.518592   4.706522
    32  C    4.979234   4.866960   3.744106   1.367007   1.423145
    33  C    2.376445   1.469149   2.606875   5.057367   6.595527
    34  H    3.248166   4.454092   4.887782   5.025164   4.017007
    35  H    2.504805   3.864398   4.791913   5.735488   5.353321
    36  H    1.083996   2.103450   3.431017   5.222079   5.800797
    37  H    4.748702   4.056794   2.617877   1.082210   3.424632
    38  H    4.290977   5.563257   6.197449   6.510365   5.444558
    39  H    3.223450   4.331419   5.051724   5.784605   5.362080
    40  H    3.820781   4.847258   5.114716   5.043270   3.994313
    41  H    4.291560   3.220029   3.860536   6.267589   8.159085
                   31         32         33         34         35
    31  C    0.000000
    32  C    5.605177   0.000000
    33  C    5.577071   6.264118   0.000000
    34  H    2.191702   5.003983   5.594724   0.000000
    35  H    2.174973   6.081401   4.637512   1.764601   0.000000
    36  H    3.446579   6.032165   2.494738   3.488896   2.198453
    37  H    6.474220   2.134282   5.183472   6.033025   6.609689
    38  H    1.095209   6.481657   6.486690   2.516933   2.518831
    39  H    1.093968   6.068433   5.138001   3.089053   2.500106
    40  H    1.093423   4.949860   6.003685   2.559618   3.085090
    41  H    7.445264   7.589420   1.918869   7.501213   6.515545
                   36         37         38         39         40
    36  H    0.000000
    37  H    5.819121   0.000000
    38  H    4.193028   7.497264   0.000000
    39  H    3.145836   6.637541   1.779401   0.000000
    40  H    4.153421   6.025095   1.780422   1.774532   0.000000
    41  H    4.342665   6.086167   8.354850   6.918223   7.839077
                   41
    41  H    0.000000
 Stoichiometry    C16H18FN3O3
 Framework group  C1[X(C16H18FN3O3)]
 Deg. of freedom   117
 Full point group                 C1      NOp   1
 Largest Abelian subgroup         C1      NOp   1
 Largest concise Abelian subgroup C1      NOp   1
                         Standard orientation:                         
 ---------------------------------------------------------------------
 Center     Atomic      Atomic             Coordinates (Angstroms)
 Number     Number       Type             X           Y           Z
 ---------------------------------------------------------------------
      1          9           0        1.920667   -2.997259   -0.213093
      2          1           0        1.216043    1.483613   -0.566076
      3          7           0        3.063119   -0.442156   -0.633263
      4          6           0        3.643056    0.821156   -1.132571
      5          6           0        4.194738    1.661033    0.038495
      6          7           0        5.210898    0.832406    0.728414
      7          6           0        4.078320   -1.248517    0.098146
      8          6           0        4.632466   -0.420255    1.273180
      9          1           0        5.713345    1.363784    1.444848
     10          1           0        2.903167    1.368538   -1.719290
     11          1           0        4.487546    0.559769   -1.780120
     12          1           0        4.901037   -1.463441   -0.592226
     13          1           0        3.627823   -2.175299    0.435212
     14          1           0        5.426591   -0.983465    1.774257
     15          1           0        3.811584   -0.244073    1.992608
     16          1           0        4.678218    2.564221   -0.348383
     17          1           0        3.353276    1.958470    0.692289
     18          8           0       -2.971483   -2.382432    0.290278
     19          8           0       -5.418100   -1.179550    0.363650
     20          8           0       -5.509497    1.085026    0.100058
     21          7           0       -1.462842    1.428261   -0.345972
     22          6           0        0.808397    0.492594   -0.455979
     23          6           0       -0.577013    0.333506   -0.303878
     24          6           0       -1.113362   -0.948495   -0.086802
     25          6           0       -0.973430    2.823463   -0.511586
     26          6           0       -2.795223    1.211507   -0.181379
     27          6           0       -3.376060   -0.008318    0.026419
     28          6           0       -2.560660   -1.220641    0.098387
     29          6           0       -0.234407   -2.036727   -0.049126
     30          6           0        1.699640   -0.595442   -0.429042
     31          6           0       -0.437685    3.411039    0.808417
     32          6           0        1.111375   -1.875433   -0.226784
     33          6           0       -4.838052    0.046412    0.160517
     34          1           0       -0.208928    2.831991   -1.292995
     35          1           0       -1.820449    3.413574   -0.870411
     36          1           0       -3.443812    2.078968   -0.224875
     37          1           0       -0.659703   -3.020540    0.100586
     38          1           0       -0.085756    4.434977    0.643552
     39          1           0       -1.232775    3.429253    1.559594
     40          1           0        0.390038    2.810503    1.195463
     41          1           0       -6.401432   -1.030734    0.439185
 ---------------------------------------------------------------------
 Rotational constants (GHZ):      0.5149989      0.1424458      0.1165449
 Standard basis: LANL2DZ (5D, 7F)
 There are   243 symmetry adapted cartesian basis functions of A   symmetry.
 There are   243 symmetry adapted basis functions of A   symmetry.
   243 basis functions,   647 primitive gaussians,   243 cartesian basis functions
    84 alpha electrons       84 beta electrons
       nuclear repulsion energy      1953.1353598216 Hartrees.
 NAtoms=   41 NActive=   41 NUniq=   41 SFac= 1.00D+00 NAtFMM=   60 NAOKFM=F Big=F
 Integral buffers will be    131072 words long.
 Raffenetti 2 integral format.
 Two-electron integral symmetry is turned on.
 One-electron integrals computed using PRISM.
 PrsmSu:  requested number of processors reduced to:   8 ShMem   1 Linda.
   1 Symmetry operations used in ECPInt.
 ECPInt:  NShTT=   11476 NPrTT=   87851 LenC2=   10403 LenP2D=   44823.
 LDataN:  DoStor=T MaxTD1= 2 Len=   12
 Number of processors reduced to   9 by ecpmxn.
 NBasis=   243 RedAO= T EigKep=  2.00D-04  NBF=   243
 NBsUse=   243 1.00D-06 EigRej= -1.00D+00 NBFU=   243
 ExpMin= 1.15D-01 ExpMax= 1.00D+04 ExpMxC= 3.50D+02 IAcc=3 IRadAn=         5 AccDes= 0.00D+00
 Harris functional with IExCor= 1009 and IRadAn=       5 diagonalized for initial guess.
 HarFok:  IExCor= 1009 AccDes= 0.00D+00 IRadAn=         5 IDoV= 1 UseB2=F ITyADJ=14
 ICtDFT=  3500011 ScaDFX=  1.000000  1.000000  1.000000  1.000000
 FoFCou: FMM=F IPFlag=           0 FMFlag=      100000 FMFlg1=           0
         NFxFlg=           0 DoJE=T BraDBF=F KetDBF=T FulRan=T
         wScrn=  0.000000 ICntrl=     500 IOpCl=  0 I1Cent=   200000004 NGrid=           0
         NMat0=    1 NMatS0=      1 NMatT0=    0 NMatD0=    1 NMtDS0=    0 NMtDT0=    0
 Petite list used in FoFCou.
 Requested convergence on RMS density matrix=1.00D-08 within 128 cycles.
 Requested convergence on MAX density matrix=1.00D-06.
 Requested convergence on             energy=1.00D-06.
 No special actions if energy rises.
 Integral accuracy reduced to 1.0D-05 until final iterations.
 Initial convergence to 1.0D-05 achieved.  Increase integral accuracy.
 SCF Done:  E(RM06) =  -1109.47122344     A.U. after   17 cycles
            NFock= 17  Conv=0.89D-08     -V/T= 2.0049

 **********************************************************************

            Population analysis using the SCF density.

 **********************************************************************

 Orbital symmetries:
       Occupied  (A) (A) (A) (A) (A) (A) (A) (A) (A) (A) (A) (A)
                 (A) (A) (A) (A) (A) (A) (A) (A) (A) (A) (A) (A)
                 (A) (A) (A) (A) (A) (A) (A) (A) (A) (A) (A) (A)
                 (A) (A) (A) (A) (A) (A) (A) (A) (A) (A) (A) (A)
                 (A) (A) (A) (A) (A) (A) (A) (A) (A) (A) (A) (A)
                 (A) (A) (A) (A) (A) (A) (A) (A) (A) (A) (A) (A)
                 (A) (A) (A) (A) (A) (A) (A) (A) (A) (A) (A) (A)
       Virtual   (A) (A) (A) (A) (A) (A) (A) (A) (A) (A) (A) (A)
                 (A) (A) (A) (A) (A) (A) (A) (A) (A) (A) (A) (A)
                 (A) (A) (A) (A) (A) (A) (A) (A) (A) (A) (A) (A)
                 (A) (A) (A) (A) (A) (A) (A) (A) (A) (A) (A) (A)
                 (A) (A) (A) (A) (A) (A) (A) (A) (A) (A) (A) (A)
                 (A) (A) (A) (A) (A) (A) (A) (A) (A) (A) (A) (A)
                 (A) (A) (A) (A) (A) (A) (A) (A) (A) (A) (A) (A)
                 (A) (A) (A) (A) (A) (A) (A) (A) (A) (A) (A) (A)
                 (A) (A) (A) (A) (A) (A) (A) (A) (A) (A) (A) (A)
                 (A) (A) (A) (A) (A) (A) (A) (A) (A) (A) (A) (A)
                 (A) (A) (A) (A) (A) (A) (A) (A) (A) (A) (A) (A)
                 (A) (A) (A) (A) (A) (A) (A) (A) (A) (A) (A) (A)
                 (A) (A) (A) (A) (A) (A) (A) (A) (A) (A) (A) (A)
                 (A) (A) (A)
 The electronic state is 1-A.
 Alpha  occ. eigenvalues --  -24.80227 -19.25838 -19.21353 -19.18326 -14.48341
 Alpha  occ. eigenvalues --  -14.43435 -14.40207 -10.39864 -10.34869 -10.33723
 Alpha  occ. eigenvalues --  -10.33459 -10.33148 -10.33107 -10.32674 -10.29970
 Alpha  occ. eigenvalues --  -10.29449 -10.28803 -10.28742 -10.27476 -10.26997
 Alpha  occ. eigenvalues --  -10.26984 -10.26919 -10.26912  -1.25804  -1.13078
 Alpha  occ. eigenvalues --   -1.04382  -1.04132  -1.02664  -0.98759  -0.92727
 Alpha  occ. eigenvalues --   -0.88724  -0.84759  -0.80635  -0.79551  -0.79233
 Alpha  occ. eigenvalues --   -0.77910  -0.72408  -0.69675  -0.68686  -0.67306
 Alpha  occ. eigenvalues --   -0.66215  -0.63554  -0.62410  -0.61060  -0.57718
 Alpha  occ. eigenvalues --   -0.56752  -0.55720  -0.54030  -0.52226  -0.50191
 Alpha  occ. eigenvalues --   -0.49926  -0.49900  -0.49267  -0.48840  -0.48466
 Alpha  occ. eigenvalues --   -0.47702  -0.47435  -0.47335  -0.46282  -0.45713
 Alpha  occ. eigenvalues --   -0.45360  -0.44140  -0.43557  -0.42957  -0.42249
 Alpha  occ. eigenvalues --   -0.41907  -0.41537  -0.40654  -0.39881  -0.39211
 Alpha  occ. eigenvalues --   -0.38592  -0.38110  -0.37924  -0.37704  -0.37395
 Alpha  occ. eigenvalues --   -0.35879  -0.32536  -0.31414  -0.28976  -0.28781
 Alpha  occ. eigenvalues --   -0.25010  -0.24152  -0.24086  -0.22011
 Alpha virt. eigenvalues --   -0.05314  -0.03873   0.00200   0.03174   0.07233
 Alpha virt. eigenvalues --    0.08445   0.09203   0.10059   0.10576   0.11002
 Alpha virt. eigenvalues --    0.11408   0.12483   0.12702   0.12988   0.13715
 Alpha virt. eigenvalues --    0.14196   0.14907   0.15400   0.15634   0.16847
 Alpha virt. eigenvalues --    0.17715   0.17884   0.18052   0.18826   0.19012
 Alpha virt. eigenvalues --    0.19786   0.20123   0.20503   0.21439   0.21826
 Alpha virt. eigenvalues --    0.22320   0.22622   0.22874   0.23016   0.23853
 Alpha virt. eigenvalues --    0.24820   0.25336   0.25861   0.27039   0.27144
 Alpha virt. eigenvalues --    0.27648   0.28014   0.28843   0.29637   0.30212
 Alpha virt. eigenvalues --    0.30535   0.31111   0.31186   0.31632   0.33241
 Alpha virt. eigenvalues --    0.33573   0.34232   0.34721   0.34794   0.35700
 Alpha virt. eigenvalues --    0.36321   0.36660   0.37227   0.37639   0.38044
 Alpha virt. eigenvalues --    0.38933   0.39858   0.40426   0.41258   0.41630
 Alpha virt. eigenvalues --    0.42046   0.43189   0.43815   0.44338   0.45084
 Alpha virt. eigenvalues --    0.45807   0.46364   0.47425   0.48022   0.48647
 Alpha virt. eigenvalues --    0.49625   0.49916   0.50155   0.51004   0.52097
 Alpha virt. eigenvalues --    0.53441   0.55127   0.55263   0.56084   0.57244
 Alpha virt. eigenvalues --    0.57904   0.58298   0.59808   0.60641   0.61855
 Alpha virt. eigenvalues --    0.63642   0.64951   0.67307   0.68159   0.69208
 Alpha virt. eigenvalues --    0.70683   0.70928   0.71856   0.73472   0.74388
 Alpha virt. eigenvalues --    0.75651   0.77137   0.80402   0.82398   0.84211
 Alpha virt. eigenvalues --    0.85462   0.88265   0.88359   0.90383   0.90525
 Alpha virt. eigenvalues --    0.91629   0.92710   0.94156   0.96123   0.96902
 Alpha virt. eigenvalues --    1.00157   1.00343   1.02916   1.03834   1.04086
 Alpha virt. eigenvalues --    1.04982   1.05395   1.05830   1.07725   1.08790
 Alpha virt. eigenvalues --    1.10056   1.10351   1.10975   1.12453   1.13512
 Alpha virt. eigenvalues --    1.14403   1.14655   1.15770   1.16697   1.18268
 Alpha virt. eigenvalues --    1.19573   1.23566   1.27458   1.28196   1.29575
 Alpha virt. eigenvalues --    1.31088   1.33168   1.37622   1.40326   1.41362
 Alpha virt. eigenvalues --    1.45722   1.49116   1.51432   1.52912   1.58016
 Alpha virt. eigenvalues --    1.63142   1.67041   1.70015   1.78216   1.85364
 Alpha virt. eigenvalues --    1.88803   1.98283   2.01363   2.21703
          Condensed to atoms (all electrons):
               1          2          3          4          5          6
     1  F    9.080944  -0.000037   0.004952  -0.000208   0.000011  -0.000004
     2  H   -0.000037   0.505968  -0.005898   0.005865  -0.003652  -0.000021
     3  N    0.004952  -0.005898   6.879343   0.302532  -0.064777  -0.014079
     4  C   -0.000208   0.005865   0.302532   5.390907   0.244739  -0.066084
     5  C    0.000011  -0.003652  -0.064777   0.244739   5.395790   0.310214
     6  N   -0.000004  -0.000021  -0.014079  -0.066084   0.310214   6.773386
     7  C   -0.009946   0.000338   0.275000  -0.051653   0.004979  -0.069098
     8  C    0.000084  -0.000323  -0.076440  -0.001457  -0.088405   0.309388
     9  H    0.000000   0.000001  -0.000522   0.004907  -0.038645   0.320670
    10  H   -0.000003   0.003425  -0.033314   0.343098  -0.034815   0.003662
    11  H   -0.000001   0.000329  -0.048469   0.355527  -0.047052   0.002640
    12  H   -0.000349   0.000010  -0.047560  -0.003348  -0.004318   0.003291
    13  H    0.007124  -0.000009  -0.034244   0.005812  -0.000437   0.002879
    14  H    0.000001   0.000000   0.004839  -0.001410   0.007947  -0.036126
    15  H    0.000044   0.000074  -0.002603   0.000342  -0.009294  -0.071495
    16  H    0.000000   0.000107   0.005101  -0.018172   0.357355  -0.037419
    17  H    0.000000   0.002072  -0.005580  -0.058827   0.351091  -0.066476
    18  O    0.000004   0.000001   0.000000   0.000000   0.000000   0.000000
    19  O    0.000000   0.000000   0.000000   0.000000   0.000000   0.000000
    20  O    0.000000   0.000000   0.000000   0.000000   0.000000   0.000000
    21  N    0.000000  -0.003974   0.000000   0.000016  -0.000009   0.000000
    22  C    0.000720   0.292779  -0.074256   0.023100   0.004318  -0.000333
    23  C   -0.000801  -0.011804  -0.007415  -0.000602   0.000551  -0.000065
    24  C   -0.001391  -0.002282   0.002154  -0.000351   0.000096  -0.000002
    25  C   -0.000001   0.012632  -0.000051   0.000128  -0.000056   0.000003
    26  C    0.000000   0.001111  -0.000009   0.000020  -0.000003   0.000000
    27  C   -0.000004  -0.000040  -0.000001   0.000000   0.000000   0.000000
    28  C    0.000004  -0.000083   0.000080  -0.000023   0.000002   0.000000
    29  C   -0.062120   0.000446   0.008715   0.000388  -0.000028   0.000003
    30  C   -0.042929  -0.031321   0.176233  -0.083827  -0.020473  -0.001340
    31  C    0.000000  -0.006013   0.000000  -0.000212   0.000156  -0.000006
    32  C    0.284285   0.001165  -0.005173   0.003206  -0.001579   0.000031
    33  C    0.000000   0.000000   0.000000   0.000000   0.000000   0.000000
    34  H    0.000000   0.003575   0.000009  -0.000073   0.000003   0.000000
    35  H    0.000000   0.000159   0.000000  -0.000001   0.000000   0.000000
    36  H    0.000000   0.000007   0.000000   0.000000   0.000000   0.000000
    37  H    0.000732   0.000007  -0.000049   0.000001   0.000000   0.000000
    38  H    0.000000   0.000117   0.000000   0.000001   0.000004   0.000000
    39  H    0.000000   0.000082   0.000000   0.000001   0.000000   0.000000
    40  H    0.000000   0.001009   0.000000  -0.000121   0.000099  -0.000003
    41  H    0.000000   0.000000   0.000000   0.000000   0.000000   0.000000
               7          8          9         10         11         12
     1  F   -0.009946   0.000084   0.000000  -0.000003  -0.000001  -0.000349
     2  H    0.000338  -0.000323   0.000001   0.003425   0.000329   0.000010
     3  N    0.275000  -0.076440  -0.000522  -0.033314  -0.048469  -0.047560
     4  C   -0.051653  -0.001457   0.004907   0.343098   0.355527  -0.003348
     5  C    0.004979  -0.088405  -0.038645  -0.034815  -0.047052  -0.004318
     6  N   -0.069098   0.309388   0.320670   0.003662   0.002640   0.003291
     7  C    5.396374   0.257464   0.005152   0.005350  -0.009497   0.339148
     8  C    0.257464   5.379402  -0.038101  -0.000484  -0.003025  -0.047959
     9  H    0.005152  -0.038101   0.463648  -0.000116   0.000116   0.000010
    10  H    0.005350  -0.000484  -0.000116   0.524096  -0.016779   0.000304
    11  H   -0.009497  -0.003025   0.000116  -0.016779   0.494275   0.006515
    12  H    0.339148  -0.047959   0.000010   0.000304   0.006515   0.523733
    13  H    0.361254  -0.032235  -0.000092  -0.000044   0.000201  -0.011134
    14  H   -0.019940   0.362433  -0.004874   0.000000   0.000033  -0.003407
    15  H   -0.053855   0.353781   0.000263   0.000118   0.000239   0.004805
    16  H   -0.001487   0.007568  -0.004612   0.000060  -0.002641   0.000068
    17  H   -0.000074  -0.008086   0.000325   0.001369   0.004076   0.000239
    18  O    0.000000   0.000000   0.000000   0.000000   0.000000   0.000000
    19  O    0.000000   0.000000   0.000000   0.000000   0.000000   0.000000
    20  O    0.000000   0.000000   0.000000   0.000000   0.000000   0.000000
    21  N    0.000003  -0.000001   0.000000  -0.000020   0.000000   0.000000
    22  C    0.012773  -0.001822  -0.000047   0.017471   0.000001  -0.000078
    23  C    0.000993  -0.000361  -0.000001   0.004103   0.000068   0.000004
    24  C   -0.000357   0.000043   0.000000   0.000167  -0.000008   0.000001
    25  C   -0.000003  -0.000002   0.000000  -0.000103  -0.000001   0.000000
    26  C    0.000001   0.000000   0.000000   0.000002   0.000000   0.000000
    27  C   -0.000001   0.000000   0.000000   0.000000   0.000000   0.000000
    28  C    0.000006  -0.000001   0.000000   0.000001   0.000000   0.000000
    29  C   -0.003763   0.000860   0.000000  -0.000113   0.000002  -0.000009
    30  C   -0.034952  -0.017379   0.000138  -0.022299   0.010706   0.009369
    31  C    0.000004   0.000001   0.000000   0.000040   0.000000   0.000000
    32  C   -0.027665   0.006860   0.000007  -0.002454   0.000095  -0.000358
    33  C    0.000000   0.000000   0.000000   0.000000   0.000000   0.000000
    34  H    0.000001   0.000000   0.000000   0.000223   0.000001   0.000000
    35  H    0.000000   0.000000   0.000000   0.000000   0.000000   0.000000
    36  H    0.000000   0.000000   0.000000   0.000000   0.000000   0.000000
    37  H   -0.000001  -0.000003   0.000000   0.000000   0.000000   0.000000
    38  H    0.000000   0.000000   0.000000   0.000000   0.000000   0.000000
    39  H    0.000000   0.000000   0.000000   0.000000   0.000000   0.000000
    40  H    0.000006  -0.000007   0.000000   0.000010   0.000000   0.000000
    41  H    0.000000   0.000000   0.000000   0.000000   0.000000   0.000000
              13         14         15         16         17         18
     1  F    0.007124   0.000001   0.000044   0.000000   0.000000   0.000004
     2  H   -0.000009   0.000000   0.000074   0.000107   0.002072   0.000001
     3  N   -0.034244   0.004839  -0.002603   0.005101  -0.005580   0.000000
     4  C    0.005812  -0.001410   0.000342  -0.018172  -0.058827   0.000000
     5  C   -0.000437   0.007947  -0.009294   0.357355   0.351091   0.000000
     6  N    0.002879  -0.036126  -0.071495  -0.037419  -0.066476   0.000000
     7  C    0.361254  -0.019940  -0.053855  -0.001487  -0.000074   0.000000
     8  C   -0.032235   0.362433   0.353781   0.007568  -0.008086   0.000000
     9  H   -0.000092  -0.004874   0.000263  -0.004612   0.000325   0.000000
    10  H   -0.000044   0.000000   0.000118   0.000060   0.001369   0.000000
    11  H    0.000201   0.000033   0.000239  -0.002641   0.004076   0.000000
    12  H   -0.011134  -0.003407   0.004805   0.000068   0.000239   0.000000
    13  H    0.442536  -0.000126   0.001159   0.000000   0.000086   0.000000
    14  H   -0.000126   0.502247  -0.032106  -0.000059  -0.000215   0.000000
    15  H    0.001159  -0.032106   0.604309  -0.000179   0.010827   0.000000
    16  H    0.000000  -0.000059  -0.000179   0.511258  -0.033920   0.000000
    17  H    0.000086  -0.000215   0.010827  -0.033920   0.614008   0.000000
    18  O    0.000000   0.000000   0.000000   0.000000   0.000000   7.790747
    19  O    0.000000   0.000000   0.000000   0.000000   0.000000  -0.006397
    20  O    0.000000   0.000000   0.000000   0.000000   0.000000   0.000009
    21  N    0.000000   0.000000   0.000000   0.000000   0.000003   0.000271
    22  C    0.000508  -0.000026   0.000110  -0.000200   0.000868  -0.000311
    23  C    0.000094  -0.000001   0.000128  -0.000001   0.000941  -0.008193
    24  C    0.000037   0.000000   0.000005   0.000000   0.000009  -0.129852
    25  C    0.000000   0.000000   0.000000   0.000004  -0.000199   0.000003
    26  C    0.000000   0.000000   0.000000   0.000000   0.000002   0.001730
    27  C    0.000000   0.000000   0.000000   0.000000   0.000000  -0.072952
    28  C    0.000000   0.000000   0.000000   0.000000   0.000000   0.680125
    29  C   -0.000687   0.000000  -0.000025   0.000000  -0.000009   0.024877
    30  C   -0.002922  -0.000231   0.005760   0.000396   0.003974   0.000062
    31  C    0.000000   0.000000   0.000001  -0.000004   0.000351   0.000000
    32  C   -0.002660   0.000013  -0.000046  -0.000003   0.000051   0.001558
    33  C    0.000000   0.000000   0.000000   0.000000   0.000000  -0.007902
    34  H    0.000000   0.000000   0.000000   0.000000   0.000022   0.000000
    35  H    0.000000   0.000000   0.000000   0.000000   0.000000   0.000000
    36  H    0.000000   0.000000   0.000000   0.000000   0.000000  -0.000057
    37  H    0.000007   0.000000   0.000000   0.000000   0.000000   0.011888
    38  H    0.000000   0.000000   0.000000   0.000000  -0.000007   0.000000
    39  H    0.000000   0.000000   0.000000   0.000000   0.000004   0.000000
    40  H    0.000000   0.000000   0.000007   0.000000   0.000325   0.000000
    41  H    0.000000   0.000000   0.000000   0.000000   0.000000   0.000384
              19         20         21         22         23         24
     1  F    0.000000   0.000000   0.000000   0.000720  -0.000801  -0.001391
     2  H    0.000000   0.000000  -0.003974   0.292779  -0.011804  -0.002282
     3  N    0.000000   0.000000   0.000000  -0.074256  -0.007415   0.002154
     4  C    0.000000   0.000000   0.000016   0.023100  -0.000602  -0.000351
     5  C    0.000000   0.000000  -0.000009   0.004318   0.000551   0.000096
     6  N    0.000000   0.000000   0.000000  -0.000333  -0.000065  -0.000002
     7  C    0.000000   0.000000   0.000003   0.012773   0.000993  -0.000357
     8  C    0.000000   0.000000  -0.000001  -0.001822  -0.000361   0.000043
     9  H    0.000000   0.000000   0.000000  -0.000047  -0.000001   0.000000
    10  H    0.000000   0.000000  -0.000020   0.017471   0.004103   0.000167
    11  H    0.000000   0.000000   0.000000   0.000001   0.000068  -0.000008
    12  H    0.000000   0.000000   0.000000  -0.000078   0.000004   0.000001
    13  H    0.000000   0.000000   0.000000   0.000508   0.000094   0.000037
    14  H    0.000000   0.000000   0.000000  -0.000026  -0.000001   0.000000
    15  H    0.000000   0.000000   0.000000   0.000110   0.000128   0.000005
    16  H    0.000000   0.000000   0.000000  -0.000200  -0.000001   0.000000
    17  H    0.000000   0.000000   0.000003   0.000868   0.000941   0.000009
    18  O   -0.006397   0.000009   0.000271  -0.000311  -0.008193  -0.129852
    19  O    8.082080  -0.083928   0.000006  -0.000004  -0.000360  -0.000752
    20  O   -0.083928   7.889464   0.000857  -0.000017  -0.000462   0.000000
    21  N    0.000006   0.000857   6.672468  -0.058875   0.222966  -0.013041
    22  C   -0.000004  -0.000017  -0.058875   5.809100   0.423098  -0.164125
    23  C   -0.000360  -0.000462   0.222966   0.423098   5.328394   0.173619
    24  C   -0.000752   0.000000  -0.013041  -0.164125   0.173619   5.764737
    25  C    0.000002   0.000228   0.246568   0.029251  -0.059914   0.003841
    26  C   -0.005549   0.004271   0.398851   0.004066  -0.126385   0.017515
    27  C   -0.030798  -0.061478  -0.059776  -0.005423   0.019654  -0.161978
    28  C    0.002496  -0.003775  -0.008807   0.002728  -0.010106   0.089883
    29  C    0.000154   0.000025   0.012243  -0.098367  -0.147412   0.448568
    30  C    0.000000   0.000000  -0.007606   0.410038  -0.076184  -0.117923
    31  C    0.000000   0.000002  -0.064254   0.006309  -0.017511  -0.002841
    32  C    0.000001   0.000000   0.000950  -0.168182  -0.081164  -0.072079
    33  C    0.250546   0.588623   0.008808  -0.000501  -0.000915  -0.024803
    34  H    0.000000   0.000000  -0.040785   0.013922  -0.016289  -0.002181
    35  H    0.000000   0.000004  -0.040964  -0.001319   0.002377   0.000631
    36  H    0.000359   0.013049  -0.038266  -0.000190  -0.005102   0.000325
    37  H    0.000000   0.000000  -0.000076   0.000818   0.002478  -0.010576
    38  H    0.000000   0.000000   0.004334  -0.000755   0.000730   0.000033
    39  H    0.000000   0.000001  -0.003061  -0.000084  -0.000063  -0.000079
    40  H    0.000000   0.000000  -0.003086   0.003995   0.002135   0.000074
    41  H    0.244856   0.003290   0.000001   0.000000   0.000007   0.000061
              25         26         27         28         29         30
     1  F   -0.000001   0.000000  -0.000004   0.000004  -0.062120  -0.042929
     2  H    0.012632   0.001111  -0.000040  -0.000083   0.000446  -0.031321
     3  N   -0.000051  -0.000009  -0.000001   0.000080   0.008715   0.176233
     4  C    0.000128   0.000020   0.000000  -0.000023   0.000388  -0.083827
     5  C   -0.000056  -0.000003   0.000000   0.000002  -0.000028  -0.020473
     6  N    0.000003   0.000000   0.000000   0.000000   0.000003  -0.001340
     7  C   -0.000003   0.000001  -0.000001   0.000006  -0.003763  -0.034952
     8  C   -0.000002   0.000000   0.000000  -0.000001   0.000860  -0.017379
     9  H    0.000000   0.000000   0.000000   0.000000   0.000000   0.000138
    10  H   -0.000103   0.000002   0.000000   0.000001  -0.000113  -0.022299
    11  H   -0.000001   0.000000   0.000000   0.000000   0.000002   0.010706
    12  H    0.000000   0.000000   0.000000   0.000000  -0.000009   0.009369
    13  H    0.000000   0.000000   0.000000   0.000000  -0.000687  -0.002922
    14  H    0.000000   0.000000   0.000000   0.000000   0.000000  -0.000231
    15  H    0.000000   0.000000   0.000000   0.000000  -0.000025   0.005760
    16  H    0.000004   0.000000   0.000000   0.000000   0.000000   0.000396
    17  H   -0.000199   0.000002   0.000000   0.000000  -0.000009   0.003974
    18  O    0.000003   0.001730  -0.072952   0.680125   0.024877   0.000062
    19  O    0.000002  -0.005549  -0.030798   0.002496   0.000154   0.000000
    20  O    0.000228   0.004271  -0.061478  -0.003775   0.000025   0.000000
    21  N    0.246568   0.398851  -0.059776  -0.008807   0.012243  -0.007606
    22  C    0.029251   0.004066  -0.005423   0.002728  -0.098367   0.410038
    23  C   -0.059914  -0.126385   0.019654  -0.010106  -0.147412  -0.076184
    24  C    0.003841   0.017515  -0.161978   0.089883   0.448568  -0.117923
    25  C    5.262151  -0.055341   0.004204   0.000953   0.000144   0.001419
    26  C   -0.055341   5.524366   0.314126  -0.074704   0.004625  -0.000460
    27  C    0.004204   0.314126   5.865687   0.041971  -0.025979   0.000059
    28  C    0.000953  -0.074704   0.041971   5.212860  -0.049008   0.000306
    29  C    0.000144   0.004625  -0.025979  -0.049008   5.872525  -0.139047
    30  C    0.001419  -0.000460   0.000059   0.000306  -0.139047   5.315869
    31  C    0.272538  -0.004966  -0.000480   0.000043  -0.000112   0.002461
    32  C    0.000010   0.000306  -0.001374  -0.020179   0.417415   0.308465
    33  C    0.000393  -0.028622   0.083108  -0.031923   0.000488  -0.000018
    34  H    0.366615   0.002210   0.000057  -0.000034  -0.000111   0.002590
    35  H    0.364302   0.004096   0.000243  -0.000067   0.000030  -0.000069
    36  H   -0.000538   0.309383  -0.009223   0.004072   0.000081  -0.000017
    37  H    0.000005  -0.000146   0.002849   0.005142   0.318529  -0.001756
    38  H   -0.027579  -0.000065  -0.000001   0.000000   0.000001  -0.000051
    39  H   -0.035152   0.003245   0.000067   0.000006  -0.000002   0.000003
    40  H   -0.038568   0.000030  -0.000020   0.000008   0.000020   0.000650
    41  H    0.000000  -0.000418   0.005116   0.001811  -0.000004   0.000000
              31         32         33         34         35         36
     1  F    0.000000   0.284285   0.000000   0.000000   0.000000   0.000000
     2  H   -0.006013   0.001165   0.000000   0.003575   0.000159   0.000007
     3  N    0.000000  -0.005173   0.000000   0.000009   0.000000   0.000000
     4  C   -0.000212   0.003206   0.000000  -0.000073  -0.000001   0.000000
     5  C    0.000156  -0.001579   0.000000   0.000003   0.000000   0.000000
     6  N   -0.000006   0.000031   0.000000   0.000000   0.000000   0.000000
     7  C    0.000004  -0.027665   0.000000   0.000001   0.000000   0.000000
     8  C    0.000001   0.006860   0.000000   0.000000   0.000000   0.000000
     9  H    0.000000   0.000007   0.000000   0.000000   0.000000   0.000000
    10  H    0.000040  -0.002454   0.000000   0.000223   0.000000   0.000000
    11  H    0.000000   0.000095   0.000000   0.000001   0.000000   0.000000
    12  H    0.000000  -0.000358   0.000000   0.000000   0.000000   0.000000
    13  H    0.000000  -0.002660   0.000000   0.000000   0.000000   0.000000
    14  H    0.000000   0.000013   0.000000   0.000000   0.000000   0.000000
    15  H    0.000001  -0.000046   0.000000   0.000000   0.000000   0.000000
    16  H   -0.000004  -0.000003   0.000000   0.000000   0.000000   0.000000
    17  H    0.000351   0.000051   0.000000   0.000022   0.000000   0.000000
    18  O    0.000000   0.001558  -0.007902   0.000000   0.000000  -0.000057
    19  O    0.000000   0.000001   0.250546   0.000000   0.000000   0.000359
    20  O    0.000002   0.000000   0.588623   0.000000   0.000004   0.013049
    21  N   -0.064254   0.000950   0.008808  -0.040785  -0.040964  -0.038266
    22  C    0.006309  -0.168182  -0.000501   0.013922  -0.001319  -0.000190
    23  C   -0.017511  -0.081164  -0.000915  -0.016289   0.002377  -0.005102
    24  C   -0.002841  -0.072079  -0.024803  -0.002181   0.000631   0.000325
    25  C    0.272538   0.000010   0.000393   0.366615   0.364302  -0.000538
    26  C   -0.004966   0.000306  -0.028622   0.002210   0.004096   0.309383
    27  C   -0.000480  -0.001374   0.083108   0.000057   0.000243  -0.009223
    28  C    0.000043  -0.020179  -0.031923  -0.000034  -0.000067   0.004072
    29  C   -0.000112   0.417415   0.000488  -0.000111   0.000030   0.000081
    30  C    0.002461   0.308465  -0.000018   0.002590  -0.000069  -0.000017
    31  C    5.410841   0.000127  -0.000001  -0.043831  -0.039607  -0.000393
    32  C    0.000127   5.186713   0.000019   0.000103  -0.000002   0.000004
    33  C   -0.000001   0.000019   4.994630   0.000004   0.000023  -0.006218
    34  H   -0.043831   0.000103   0.000004   0.517491  -0.027638   0.000201
    35  H   -0.039607  -0.000002   0.000023  -0.027638   0.508860   0.003389
    36  H   -0.000393   0.000004  -0.006218   0.000201   0.003389   0.454856
    37  H    0.000000  -0.045823  -0.000011   0.000000   0.000000   0.000000
    38  H    0.366078  -0.000001   0.000000  -0.000978  -0.000821   0.000003
    39  H    0.376261   0.000000   0.000011   0.003112  -0.003916  -0.000037
    40  H    0.371416   0.000000   0.000000  -0.003750   0.003088   0.000009
    41  H    0.000000   0.000000  -0.028847   0.000000   0.000000   0.000000
              37         38         39         40         41
     1  F    0.000732   0.000000   0.000000   0.000000   0.000000
     2  H    0.000007   0.000117   0.000082   0.001009   0.000000
     3  N   -0.000049   0.000000   0.000000   0.000000   0.000000
     4  C    0.000001   0.000001   0.000001  -0.000121   0.000000
     5  C    0.000000   0.000004   0.000000   0.000099   0.000000
     6  N    0.000000   0.000000   0.000000  -0.000003   0.000000
     7  C   -0.000001   0.000000   0.000000   0.000006   0.000000
     8  C   -0.000003   0.000000   0.000000  -0.000007   0.000000
     9  H    0.000000   0.000000   0.000000   0.000000   0.000000
    10  H    0.000000   0.000000   0.000000   0.000010   0.000000
    11  H    0.000000   0.000000   0.000000   0.000000   0.000000
    12  H    0.000000   0.000000   0.000000   0.000000   0.000000
    13  H    0.000007   0.000000   0.000000   0.000000   0.000000
    14  H    0.000000   0.000000   0.000000   0.000000   0.000000
    15  H    0.000000   0.000000   0.000000   0.000007   0.000000
    16  H    0.000000   0.000000   0.000000   0.000000   0.000000
    17  H    0.000000  -0.000007   0.000004   0.000325   0.000000
    18  O    0.011888   0.000000   0.000000   0.000000   0.000384
    19  O    0.000000   0.000000   0.000000   0.000000   0.244856
    20  O    0.000000   0.000000   0.000001   0.000000   0.003290
    21  N   -0.000076   0.004334  -0.003061  -0.003086   0.000001
    22  C    0.000818  -0.000755  -0.000084   0.003995   0.000000
    23  C    0.002478   0.000730  -0.000063   0.002135   0.000007
    24  C   -0.010576   0.000033  -0.000079   0.000074   0.000061
    25  C    0.000005  -0.027579  -0.035152  -0.038568   0.000000
    26  C   -0.000146  -0.000065   0.003245   0.000030  -0.000418
    27  C    0.002849  -0.000001   0.000067  -0.000020   0.005116
    28  C    0.005142   0.000000   0.000006   0.000008   0.001811
    29  C    0.318529   0.000001  -0.000002   0.000020  -0.000004
    30  C   -0.001756  -0.000051   0.000003   0.000650   0.000000
    31  C    0.000000   0.366078   0.376261   0.371416   0.000000
    32  C   -0.045823  -0.000001   0.000000   0.000000   0.000000
    33  C   -0.000011   0.000000   0.000011   0.000000  -0.028847
    34  H    0.000000  -0.000978   0.003112  -0.003750   0.000000
    35  H    0.000000  -0.000821  -0.003916   0.003088   0.000000
    36  H    0.000000   0.000003  -0.000037   0.000009   0.000000
    37  H    0.417357   0.000000   0.000000   0.000000   0.000000
    38  H    0.000000   0.476470  -0.018971  -0.020015   0.000000
    39  H    0.000000  -0.018971   0.468035  -0.020111   0.000000
    40  H    0.000000  -0.020015  -0.020111   0.478202   0.000000
    41  H    0.000000   0.000000   0.000000   0.000000   0.370588
 Mulliken charges:
               1
     1  F   -0.261111
     2  H    0.234179
     3  N   -0.238519
     4  C   -0.394223
     5  C   -0.363814
     6  N   -0.363616
     7  C   -0.376554
     8  C   -0.361794
     9  H    0.291773
    10  H    0.207043
    11  H    0.252649
    12  H    0.231023
    13  H    0.262893
    14  H    0.221007
    15  H    0.187629
    16  H    0.216782
    17  H    0.182750
    18  O   -0.285995
    19  O   -0.452711
    20  O   -0.350159
    21  N   -0.225745
    22  C   -0.481060
    23  C    0.388766
    24  C    0.202818
    25  C   -0.347887
    26  C   -0.293290
    27  C    0.092386
    28  C    0.156211
    29  C   -0.583343
    30  C    0.352307
    31  C   -0.626397
    32  C    0.217357
    33  C    0.203109
    34  H    0.225532
    35  H    0.227203
    36  H    0.274301
    37  H    0.298629
    38  H    0.221474
    39  H    0.230647
    40  H    0.224597
    41  H    0.403155
 Sum of Mulliken charges =   0.00000
 Mulliken charges with hydrogens summed into heavy atoms:
               1
     1  F   -0.261111
     3  N   -0.238519
     4  C    0.065469
     5  C    0.035718
     6  N   -0.071843
     7  C    0.117362
     8  C    0.046842
    18  O   -0.285995
    19  O   -0.049556
    20  O   -0.350159
    21  N   -0.225745
    22  C   -0.246882
    23  C    0.388766
    24  C    0.202818
    25  C    0.104848
    26  C   -0.018989
    27  C    0.092386
    28  C    0.156211
    29  C   -0.284714
    30  C    0.352307
    31  C    0.050320
    32  C    0.217357
    33  C    0.203109
 Electronic spatial extent (au):  <R**2>=           8833.4202
 Charge=              0.0000 electrons
 Dipole moment (field-independent basis, Debye):
    X=              6.2226    Y=              7.3841    Z=              0.4034  Tot=              9.6648
 Quadrupole moment (field-independent basis, Debye-Ang):
   XX=           -141.2725   YY=           -134.0608   ZZ=           -130.8584
   XY=              0.6345   XZ=              6.8030   YZ=             -1.6698
 Traceless Quadrupole moment (field-independent basis, Debye-Ang):
   XX=             -5.8752   YY=              1.3364   ZZ=              4.5388
   XY=              0.6345   XZ=              6.8030   YZ=             -1.6698
 Octapole moment (field-independent basis, Debye-Ang**2):
  XXX=             49.2397  YYY=             65.4218  ZZZ=              7.4849  XYY=             42.7835
  XXY=            -17.5041  XXZ=             40.1182  XZZ=             13.3445  YZZ=              1.0326
  YYZ=             -3.1059  XYZ=             -3.2857
 Hexadecapole moment (field-independent basis, Debye-Ang**3):
 XXXX=          -8335.1274 YYYY=          -2263.7045 ZZZZ=           -403.9347 XXXY=            412.7589
 XXXZ=            124.1023 YYYX=            -62.2116 YYYZ=            -12.3916 ZZZX=              8.1971
 ZZZY=             -0.3024 XXYY=          -1909.9183 XXZZ=          -1381.4248 YYZZ=           -443.2689
 XXYZ=              7.1993 YYXZ=             34.5246 ZZXY=              8.6698
 N-N= 1.953135359822D+03 E-N=-6.497904761469D+03  KE= 1.104089524828D+03
 PrsmSu:  requested number of processors reduced to:   8 ShMem   1 Linda.
 PrsmSu:  requested number of processors reduced to:  19 ShMem   1 Linda.
   1 Symmetry operations used in ECPInt.
 ECPInt:  NShTT=   11476 NPrTT=   87851 LenC2=   10403 LenP2D=   44823.
 LDataN:  DoStor=T MaxTD1= 3 Len=   28
 Number of processors reduced to   9 by ecpmxn.
 Calling FoFJK, ICntrl=      2127 FMM=F ISym2X=0 I1Cent= 0 IOpClX= 0 NMat=1 NMatS=1 NMatT=0.
 CoulSu:  requested number of processors reduced to:  19 ShMem   1 Linda.
 ***** Axes restored to original set *****
 -------------------------------------------------------------------
 Center     Atomic                   Forces (Hartrees/Bohr)
 Number     Number              X              Y              Z
 -------------------------------------------------------------------
      1        9           0.000553974   -0.006724973   -0.002168924
      2        1           0.002423337    0.004598967   -0.000742685
      3        7           0.007155558    0.001606751    0.000686492
      4        6          -0.002032473   -0.003524788    0.007829946
      5        6           0.005254018   -0.007633425   -0.005480458
      6        7          -0.009556220    0.003476158    0.008283361
      7        6          -0.003069273    0.009201235   -0.000928153
      8        6           0.002963913    0.000492915   -0.009502534
      9        1          -0.000071736   -0.002273148   -0.003793409
     10        1           0.000095770    0.000909189   -0.001573301
     11        1           0.000312206    0.000172994   -0.001422153
[...]
    17  H    0.000079  -0.000204   0.009977  -0.034547   0.616804   0.000000
    18  O    0.000000   0.000000   0.000000   0.000000   0.000000   7.797867
    19  O    0.000000   0.000000   0.000000   0.000000   0.000000  -0.005230
    20  O    0.000000   0.000000   0.000000   0.000000   0.000000   0.000008
    21  N    0.000000   0.000000   0.000000   0.000000   0.000003   0.000261
    22  C    0.000233  -0.000049   0.000320  -0.000448   0.001608  -0.000310
    23  C    0.000073  -0.000001   0.000216  -0.000017   0.001659  -0.007854
    24  C    0.000049   0.000001   0.000013   0.000000   0.000030  -0.128300
    25  C    0.000000   0.000000  -0.000001   0.000006  -0.000352   0.000004
    26  C    0.000000   0.000000   0.000000   0.000000   0.000002   0.001823
    27  C    0.000000   0.000000   0.000000   0.000000   0.000000  -0.073956
    28  C    0.000000   0.000000   0.000001   0.000000   0.000000   0.676600
    29  C   -0.000412   0.000001  -0.000056   0.000000  -0.000017   0.025299
    30  C   -0.005181  -0.000255   0.006366   0.000647   0.003367   0.000047
    31  C    0.000000   0.000000   0.000002  -0.000007   0.000539   0.000000
    32  C   -0.000480   0.000024  -0.000231   0.000009  -0.000080   0.001602
    33  C    0.000000   0.000000   0.000000   0.000000   0.000000  -0.007863
    34  H    0.000000   0.000000   0.000000  -0.000001   0.000041   0.000000
    35  H    0.000000   0.000000   0.000000   0.000000   0.000000   0.000000
    36  H    0.000000   0.000000   0.000000   0.000000   0.000000  -0.000056
    37  H    0.000006   0.000000   0.000000   0.000000   0.000000   0.010449
    38  H    0.000000   0.000000   0.000000   0.000000  -0.000012   0.000000
    39  H    0.000000   0.000000   0.000000   0.000000   0.000009   0.000000
    40  H    0.000000   0.000000   0.000012   0.000000   0.000492   0.000000
    41  H    0.000000   0.000000   0.000000   0.000000   0.000000   0.000311
              19         20         21         22         23         24
     1  F    0.000000   0.000000   0.000000   0.000964  -0.000827  -0.001090
     2  H    0.000000   0.000000  -0.004348   0.291033  -0.013106  -0.002181
     3  N    0.000000   0.000000  -0.000004  -0.082841  -0.008466   0.002119
     4  C    0.000000   0.000000   0.000024   0.026366  -0.000853  -0.000417
     5  C    0.000000   0.000000  -0.000015   0.007538   0.001281   0.000144
     6  N    0.000000   0.000000   0.000000  -0.000864  -0.000133  -0.000005
     7  C    0.000000   0.000000   0.000003   0.013594   0.001082  -0.000300
     8  C    0.000000   0.000000  -0.000002  -0.001588  -0.000397   0.000052
     9  H    0.000000   0.000000   0.000000  -0.000030   0.000000   0.000000
    10  H    0.000000   0.000000  -0.000021   0.016296   0.004071   0.000160
    11  H    0.000000   0.000000   0.000000  -0.000173   0.000060  -0.000008
    12  H    0.000000   0.000000   0.000000  -0.000053   0.000007   0.000001
    13  H    0.000000   0.000000   0.000000   0.000233   0.000073   0.000049
    14  H    0.000000   0.000000   0.000000  -0.000049  -0.000001   0.000001
    15  H    0.000000   0.000000   0.000000   0.000320   0.000216   0.000013
    16  H    0.000000   0.000000   0.000000  -0.000448  -0.000017   0.000000
    17  H    0.000000   0.000000   0.000003   0.001608   0.001659   0.000030
    18  O   -0.005230   0.000008   0.000261  -0.000310  -0.007854  -0.128300
    19  O    8.069225  -0.086775   0.000007  -0.000003  -0.000319  -0.000624
    20  O   -0.086775   7.902868   0.000902  -0.000016  -0.000418  -0.000038
    21  N    0.000007   0.000902   6.672625  -0.059093   0.220100  -0.012701
    22  C   -0.000003  -0.000016  -0.059093   5.795100   0.416909  -0.155464
    23  C   -0.000319  -0.000418   0.220100   0.416909   5.340652   0.171184
    24  C   -0.000624  -0.000038  -0.012701  -0.155464   0.171184   5.759709
    25  C    0.000001   0.000210   0.249636   0.030883  -0.062261   0.003730
    26  C   -0.005854   0.005255   0.397481   0.003844  -0.124167   0.017472
    27  C   -0.029083  -0.064812  -0.059911  -0.005571   0.013684  -0.154690
    28  C    0.004156  -0.003526  -0.008848   0.002348  -0.007247   0.084145
    29  C    0.000131   0.000022   0.012188  -0.093544  -0.142096   0.441613
    30  C    0.000000   0.000000  -0.007801   0.401320  -0.072842  -0.114566
    31  C    0.000000   0.000003  -0.066356   0.005832  -0.017336  -0.002791
    32  C    0.000001   0.000000   0.000960  -0.164841  -0.077523  -0.069650
    33  C    0.256684   0.589639   0.008570  -0.000430  -0.000045  -0.025338
    34  H    0.000000   0.000000  -0.040386   0.013317  -0.016424  -0.002078
    35  H    0.000000   0.000004  -0.040775  -0.001159   0.002311   0.000581
    36  H    0.000338   0.012451  -0.039206  -0.000183  -0.005039   0.000459
    37  H    0.000000   0.000000  -0.000073   0.000845   0.001618  -0.013024
    38  H    0.000000   0.000000   0.004543  -0.000785   0.000719   0.000031
    39  H    0.000000   0.000001  -0.003563  -0.000131  -0.000081  -0.000067
    40  H    0.000000   0.000000  -0.003103   0.004107   0.002307   0.000092
    41  H    0.249161   0.003102   0.000001   0.000000   0.000007   0.000046
              25         26         27         28         29         30
     1  F   -0.000001   0.000000  -0.000003  -0.000016  -0.062604  -0.044996
     2  H    0.012909   0.001026  -0.000042  -0.000076   0.000404  -0.030933
     3  N   -0.000055  -0.000009   0.000000   0.000078   0.008234   0.177599
     4  C    0.000165   0.000022   0.000000  -0.000026   0.000378  -0.086943
     5  C   -0.000115  -0.000004   0.000000   0.000003  -0.000051  -0.025392
     6  N    0.000007   0.000000   0.000000   0.000000   0.000010  -0.001432
     7  C   -0.000004   0.000001  -0.000001   0.000007  -0.003559  -0.039790
     8  C   -0.000003   0.000000   0.000000  -0.000001   0.000904  -0.017556
     9  H    0.000000   0.000000   0.000000   0.000000   0.000000   0.000114
    10  H   -0.000109   0.000002   0.000000   0.000001  -0.000114  -0.021350
    11  H   -0.000002   0.000000   0.000000   0.000000   0.000002   0.010965
    12  H    0.000000   0.000000   0.000000   0.000000  -0.000020   0.009527
    13  H    0.000000   0.000000   0.000000   0.000000  -0.000412  -0.005181
    14  H    0.000000   0.000000   0.000000   0.000000   0.000001  -0.000255
    15  H   -0.000001   0.000000   0.000000   0.000001  -0.000056   0.006366
    16  H    0.000006   0.000000   0.000000   0.000000   0.000000   0.000647
    17  H   -0.000352   0.000002   0.000000   0.000000  -0.000017   0.003367
    18  O    0.000004   0.001823  -0.073956   0.676600   0.025299   0.000047
    19  O    0.000001  -0.005854  -0.029083   0.004156   0.000131   0.000000
    20  O    0.000210   0.005255  -0.064812  -0.003526   0.000022   0.000000
    21  N    0.249636   0.397481  -0.059911  -0.008848   0.012188  -0.007801
    22  C    0.030883   0.003844  -0.005571   0.002348  -0.093544   0.401320
    23  C   -0.062261  -0.124167   0.013684  -0.007247  -0.142096  -0.072842
    24  C    0.003730   0.017472  -0.154690   0.084145   0.441613  -0.114566
    25  C    5.271795  -0.056158   0.004265   0.000852   0.000188   0.001435
    26  C   -0.056158   5.518835   0.314695  -0.076825   0.004643  -0.000542
    27  C    0.004265   0.314695   5.863386   0.040692  -0.023053   0.000066
    28  C    0.000852  -0.076825   0.040692   5.228331  -0.050798   0.000451
    29  C    0.000188   0.004643  -0.023053  -0.050798   5.858619  -0.135677
    30  C    0.001435  -0.000542   0.000066   0.000451  -0.135677   5.352865
    31  C    0.270537  -0.005311  -0.000512   0.000064  -0.000101   0.002502
    32  C    0.000013   0.000280  -0.001206  -0.019965   0.417633   0.286988
    33  C    0.000352  -0.026983   0.081830  -0.032354   0.000323  -0.000014
    34  H    0.365952   0.002389   0.000032  -0.000033  -0.000110   0.002621
    35  H    0.363547   0.003210   0.000362  -0.000065   0.000028  -0.000069
    36  H   -0.000150   0.310291  -0.008978   0.003902   0.000083  -0.000016
    37  H    0.000005  -0.000132   0.002554   0.005118   0.319970  -0.001239
    38  H   -0.027343  -0.000086  -0.000002   0.000000   0.000000  -0.000051
    39  H   -0.035263   0.003819   0.000081   0.000006  -0.000002   0.000002
    40  H   -0.038784  -0.000038  -0.000018   0.000008   0.000020   0.000657
    41  H    0.000000  -0.000318   0.005104   0.001446  -0.000004   0.000000
              31         32         33         34         35         36
     1  F    0.000000   0.288551   0.000000   0.000000   0.000000   0.000000
     2  H   -0.006080   0.001182   0.000000   0.004306   0.000175   0.000007
     3  N    0.000003  -0.004002   0.000000   0.000013   0.000000   0.000000
     4  C   -0.000256   0.003168   0.000000  -0.000110  -0.000001   0.000000
     5  C    0.000242  -0.002255   0.000000   0.000017   0.000000   0.000000
     6  N   -0.000014   0.000187   0.000000   0.000000   0.000000   0.000000
     7  C    0.000005  -0.026830   0.000000   0.000001   0.000000   0.000000
     8  C    0.000004   0.006339   0.000000   0.000000   0.000000   0.000000
     9  H    0.000000   0.000003   0.000000   0.000000   0.000000   0.000000
    10  H    0.000043  -0.002463   0.000000   0.000244   0.000000   0.000000
    11  H    0.000000   0.000117   0.000000   0.000001   0.000000   0.000000
    12  H    0.000000  -0.000506   0.000000   0.000000   0.000000   0.000000
    13  H    0.000000  -0.000480   0.000000   0.000000   0.000000   0.000000
    14  H    0.000000   0.000024   0.000000   0.000000   0.000000   0.000000
    15  H    0.000002  -0.000231   0.000000   0.000000   0.000000   0.000000
    16  H   -0.000007   0.000009   0.000000  -0.000001   0.000000   0.000000
    17  H    0.000539  -0.000080   0.000000   0.000041   0.000000   0.000000
    18  O    0.000000   0.001602  -0.007863   0.000000   0.000000  -0.000056
    19  O    0.000000   0.000001   0.256684   0.000000   0.000000   0.000338
    20  O    0.000003   0.000000   0.589639   0.000000   0.000004   0.012451
    21  N   -0.066356   0.000960   0.008570  -0.040386  -0.040775  -0.039206
    22  C    0.005832  -0.164841  -0.000430   0.013317  -0.001159  -0.000183
    23  C   -0.017336  -0.077523  -0.000045  -0.016424   0.002311  -0.005039
    24  C   -0.002791  -0.069650  -0.025338  -0.002078   0.000581   0.000459
    25  C    0.270537   0.000013   0.000352   0.365952   0.363547  -0.000150
    26  C   -0.005311   0.000280  -0.026983   0.002389   0.003210   0.310291
    27  C   -0.000512  -0.001206   0.081830   0.000032   0.000362  -0.008978
    28  C    0.000064  -0.019965  -0.032354  -0.000033  -0.000065   0.003902
    29  C   -0.000101   0.417633   0.000323  -0.000110   0.000028   0.000083
    30  C    0.002502   0.286988  -0.000014   0.002621  -0.000069  -0.000016
    31  C    5.419010   0.000130   0.000007  -0.043827  -0.039982  -0.000646
    32  C    0.000130   5.184862   0.000011   0.000111  -0.000002   0.000004
    33  C    0.000007   0.000011   4.986788   0.000004   0.000019  -0.005700
    34  H   -0.043827   0.000111   0.000004   0.518805  -0.028527   0.000202
    35  H   -0.039982  -0.000002   0.000019  -0.028527   0.509069   0.003257
    36  H   -0.000646   0.000004  -0.005700   0.000202   0.003257   0.455241
    37  H    0.000000  -0.042350  -0.000012   0.000000   0.000000   0.000000
    38  H    0.366183  -0.000001   0.000000  -0.001013  -0.000849   0.000004
    39  H    0.376223   0.000000   0.000013   0.003157  -0.004046  -0.000066
    40  H    0.371451  -0.000001   0.000000  -0.003803   0.003118   0.000013
    41  H    0.000000   0.000000  -0.029073   0.000000   0.000000   0.000000
              37         38         39         40         41
     1  F    0.000433   0.000000   0.000000   0.000000   0.000000
     2  H    0.000006   0.000120   0.000088   0.000848   0.000000
     3  N   -0.000046   0.000000   0.000000   0.000003   0.000000
     4  C    0.000001   0.000001   0.000000  -0.000139   0.000000
     5  C    0.000000   0.000006   0.000001   0.000102   0.000000
     6  N    0.000000   0.000000   0.000000  -0.000008   0.000000
     7  C    0.000003   0.000000   0.000000   0.000007   0.000000
     8  C   -0.000004   0.000000   0.000000  -0.000005   0.000000
     9  H    0.000000   0.000000   0.000000   0.000000   0.000000
    10  H    0.000000   0.000000   0.000000   0.000011   0.000000
    11  H    0.000000   0.000000   0.000000   0.000000   0.000000
    12  H    0.000000   0.000000   0.000000   0.000000   0.000000
    13  H    0.000006   0.000000   0.000000   0.000000   0.000000
    14  H    0.000000   0.000000   0.000000   0.000000   0.000000
    15  H    0.000000   0.000000   0.000000   0.000012   0.000000
    16  H    0.000000   0.000000   0.000000   0.000000   0.000000
    17  H    0.000000  -0.000012   0.000009   0.000492   0.000000
    18  O    0.010449   0.000000   0.000000   0.000000   0.000311
    19  O    0.000000   0.000000   0.000000   0.000000   0.249161
    20  O    0.000000   0.000000   0.000001   0.000000   0.003102
    21  N   -0.000073   0.004543  -0.003563  -0.003103   0.000001
    22  C    0.000845  -0.000785  -0.000131   0.004107   0.000000
    23  C    0.001618   0.000719  -0.000081   0.002307   0.000007
    24  C   -0.013024   0.000031  -0.000067   0.000092   0.000046
    25  C    0.000005  -0.027343  -0.035263  -0.038784   0.000000
    26  C   -0.000132  -0.000086   0.003819  -0.000038  -0.000318
    27  C    0.002554  -0.000002   0.000081  -0.000018   0.005104
    28  C    0.005118   0.000000   0.000006   0.000008   0.001446
    29  C    0.319970   0.000000  -0.000002   0.000020  -0.000004
    30  C   -0.001239  -0.000051   0.000002   0.000657   0.000000
    31  C    0.000000   0.366183   0.376223   0.371451   0.000000
    32  C   -0.042350  -0.000001   0.000000  -0.000001   0.000000
    33  C   -0.000012   0.000000   0.000013   0.000000  -0.029073
    34  H    0.000000  -0.001013   0.003157  -0.003803   0.000000
    35  H    0.000000  -0.000849  -0.004046   0.003118   0.000000
    36  H    0.000000   0.000004  -0.000066   0.000013   0.000000
    37  H    0.418377   0.000000   0.000000   0.000000   0.000000
    38  H    0.000000   0.475533  -0.019194  -0.020159   0.000000
    39  H    0.000000  -0.019194   0.468820  -0.020558   0.000000
    40  H    0.000000  -0.020159  -0.020558   0.478378   0.000000
    41  H    0.000000   0.000000   0.000000   0.000000   0.364077
 Mulliken charges:
               1
     1  F   -0.263589
     2  H    0.236260
     3  N   -0.220910
     4  C   -0.403092
     5  C   -0.361036
     6  N   -0.372601
     7  C   -0.382672
     8  C   -0.356483
     9  H    0.300313
    10  H    0.210458
    11  H    0.251485
    12  H    0.231306
    13  H    0.259029
    14  H    0.219520
    15  H    0.185144
    16  H    0.216183
    17  H    0.179468
    18  O   -0.290707
    19  O   -0.451814
    20  O   -0.358882
    21  N   -0.221099
    22  C   -0.464880
    23  C    0.379513
    24  C    0.201702
    25  C   -0.355891
    26  C   -0.288662
    27  C    0.095090
    28  C    0.151571
    29  C   -0.578474
    30  C    0.349106
    31  C   -0.629558
    32  C    0.220214
    33  C    0.203574
    34  H    0.225099
    35  H    0.229794
    36  H    0.273790
    37  H    0.297494
    38  H    0.222355
    39  H    0.230751
    40  H    0.224992
    41  H    0.406139
 Sum of Mulliken charges =   0.00000
 Mulliken charges with hydrogens summed into heavy atoms:
               1
     1  F   -0.263589
     3  N   -0.220910
     4  C    0.058851
     5  C    0.034615
     6  N   -0.072288
     7  C    0.107662
     8  C    0.048181
    18  O   -0.290707
    19  O   -0.045675
    20  O   -0.358882
    21  N   -0.221099
    22  C   -0.228620
    23  C    0.379513
    24  C    0.201702
    25  C    0.099003
    26  C   -0.014872
    27  C    0.095090
    28  C    0.151571
    29  C   -0.280980
    30  C    0.349106
    31  C    0.048540
    32  C    0.220214
    33  C    0.203574
 Electronic spatial extent (au):  <R**2>=           8753.1009
 Charge=              0.0000 electrons
 Dipole moment (field-independent basis, Debye):
    X=              6.4709    Y=              7.3760    Z=              0.3095  Tot=              9.8170
 Quadrupole moment (field-independent basis, Debye-Ang):
   XX=           -139.7434   YY=           -134.9171   ZZ=           -130.8328
   XY=              1.6432   XZ=              6.4865   YZ=             -2.3165
 Traceless Quadrupole moment (field-independent basis, Debye-Ang):
   XX=             -4.5790   YY=              0.2473   ZZ=              4.3316
   XY=              1.6432   XZ=              6.4865   YZ=             -2.3165
 Octapole moment (field-independent basis, Debye-Ang**2):
  XXX=             60.0115  YYY=             65.4010  ZZZ=              8.3265  XYY=             43.6957
  XXY=            -17.6895  XXZ=             38.2967  XZZ=             13.2852  YZZ=              2.0822
  YYZ=             -2.7524  XYZ=             -3.2888
 Hexadecapole moment (field-independent basis, Debye-Ang**3):
 XXXX=          -8063.9468 YYYY=          -2271.8044 ZZZZ=           -423.5817 XXXY=            422.1532
 XXXZ=             83.2101 YYYX=            -50.2779 YYYZ=            -14.1598 ZZZX=             10.9812
 ZZZY=              0.5500 XXYY=          -1903.9112 XXZZ=          -1358.4922 YYZZ=           -446.2881
 XXYZ=             -0.3020 YYXZ=             40.5641 ZZXY=             11.7842
 N-N= 1.955730935845D+03 E-N=-6.502981223249D+03  KE= 1.103999663523D+03
 1\1\GINC-NODE045\FOpt\RM06\LANL2DZ\C16H18F1N3O3\SUPERCOMPUTO1\21-Jul-2
 020\0\\#opt M06/lanl2dz integral=ultrafine geom=connectivity\\Title Ca
 rd Required\\0,1\F,1.9279258159,-3.0327556032,-0.3432499091\H,1.249466
 8521,1.4716163088,-0.6024815488\N,3.0942460473,-0.4693499962,-0.678783
 921\C,3.6515662948,0.8053039004,-1.1478249826\C,4.1012895132,1.6731692
 526,0.0375292315\N,5.062128301,0.8979720774,0.8219181816\C,4.091859047
 7,-1.2288440757,0.1041857385\C,4.5383010584,-0.3826167673,1.3040241436
 \H,5.5759436513,1.4340384656,1.5137497498\H,2.9338666999,1.324436262,-
 1.789746036\H,4.5385165358,0.5742899754,-1.7518883758\H,4.9586078573,-
 1.4239684082,-0.5392469732\H,3.6786492035,-2.1819568629,0.4309076788\H
 ,5.3243147522,-0.9102514232,1.8541947254\H,3.6676459951,-0.257305779,1
 .9819359901\H,4.5822888448,2.5861006668,-0.3297575112\H,3.2088260113,1
 .9688817515,0.6309845688\O,-2.9756362628,-2.3860707624,0.2748997562\O,
 -5.4384949874,-1.1225429112,0.4402330983\O,-5.474861721,1.1368192852,0
 .2001428798\N,-1.4256268113,1.4136101859,-0.3597534748\C,0.8380933048,
 0.4755445045,-0.4898621004\C,-0.5489816018,0.3083321529,-0.3276887203\
 C,-1.0996921692,-0.9737493015,-0.1105627447\C,-0.9226908597,2.79177315
 21,-0.5268951991\C,-2.7567591483,1.2214785597,-0.1606244763\C,-3.36081
 09112,0.0008225063,0.0561461678\C,-2.5486627864,-1.221512073,0.0917213
 837\C,-0.2229783641,-2.0733646291,-0.0996935664\C,1.7294554749,-0.6181
 468445,-0.4713091473\C,-0.3942273398,3.3716855489,0.7868036021\C,1.125
 753742,-1.894492755,-0.2857861463\C,-4.8202078805,0.0743908044,0.23245
 91588\H,-0.1554039945,2.7966223954,-1.3083215958\H,-1.75308276,3.39951
 4192,-0.9001484183\H,-3.3876073417,2.1082672315,-0.1790783877\H,-0.641
 9672581,-3.0672903701,0.0316564289\H,-0.0278376249,4.3919291191,0.6345
 014764\H,-1.1924265203,3.4015817805,1.5362985963\H,0.4248105583,2.7667
 813051,1.1919660969\H,-6.4049242186,-0.9794558218,0.5461485818\\Versio
 n=ES64L-G09RevD.01\State=1-A\HF=-1109.4741943\RMSD=5.295e-09\RMSF=2.52
 7e-06\Dipole=2.5502594,2.8968403,0.1483295\Quadrupole=-3.3301548,0.235
 8913,3.0942634,1.1371485,4.886902,-1.7827356\PG=C01 [X(C16H18F1N3O3)]\
 \@


 ON A TOMBSTONE, "HERE LIES LESTER MOORE,
 FOUR SLUGS FROM A 44, NO LES, NO MORE".
 Job cpu time:       0 days  3 hours 25 minutes 26.0 seconds.
 File lengths (MBytes):  RWF=     40 Int=      0 D2E=      0 Chk=      6 Scr=      1
 Normal termination of Gaussian 09 at Tue Jul 21 13:09:32 2020.
