 Entering Gaussian System, Link 0=g09
 Input=trovafloxacina.gjf
 Output=trovafloxacina.log
 Initial command:
 /usr/local/cluster_programs/g09/l1.exe "/tmp/scratch/64210.prometeo/Gau-5384.inp" -scrdir="/tmp/scratch/64210.prometeo/"
 Entering Link 1 = /usr/local/cluster_programs/g09/l1.exe PID=      5385.
  
 Copyright (c) 1988,1990,1992,1993,1995,1998,2003,2009,2013,
            Gaussian, Inc.  All Rights Reserved.
  
 This is part of the Gaussian(R) 09 program.  It is based on
 the Gaussian(R) 03 system (copyright 2003, Gaussian, Inc.),
 the Gaussian(R) 98 system (copyright 1998, Gaussian, Inc.),
 the Gaussian(R) 94 system (copyright 1995, Gaussian, Inc.),
 the Gaussian 92(TM) system (copyright 1992, Gaussian, Inc.),
 the Gaussian 90(TM) system (copyright 1990, Gaussian, Inc.),
 the Gaussian 88(TM) system (copyright 1988, Gaussian, Inc.),
 the Gaussian 86(TM) system (copyright 1986, Carnegie Mellon
 University), and the Gaussian 82(TM) system (copyright 1983,
 Carnegie Mellon University). Gaussian is a federally registered
 trademark of Gaussian, Inc.
  
 This software contains proprietary and confidential information,
 including trade secrets, belonging to Gaussian, Inc.
  
 This software is provided under written license and may be
 used, copied, transmitted, or stored only in accord with that
 written license.
  
 The following legend is applicable only to US Government
 contracts under FAR:
  
                    RESTRICTED RIGHTS LEGEND
  
 Use, reproduction and disclosure by the US Government is
 subject to restrictions as set forth in subparagraphs (a)
 and (c) of the Commercial Computer Software - Restricted
 Rights clause in FAR 52.227-19.
  
 Gaussian, Inc.
 340 Quinnipiac St., Bldg. 40, Wallingford CT 06492
  
  
 ---------------------------------------------------------------
 Warning -- This program may not be used in any manner that
 competes with the business of Gaussian, Inc. or will provide
 assistance to any competitor of Gaussian, Inc.  The licensee
 of this program is prohibited from giving any competitor of
 Gaussian, Inc. access to this program.  By using this program,
 the user acknowledges that Gaussian, Inc. is engaged in the
 business of creating and licensing software in the field of
 computational chemistry and represents and warrants to the
 licensee that it is not a competitor of Gaussian, Inc. and that
 it will not use this program in any manner prohibited above.
 ---------------------------------------------------------------
  

 Cite this work as:
 Gaussian 09, Revision D.01,
 M. J. Frisch, G. W. Trucks, H. B. Schlegel, G. E. Scuseria, 
 M. A. Robb, J. R. Cheeseman, G. Scalmani, V. Barone, B. Mennucci, 
 G. A. Petersson, H. Nakatsuji, M. Caricato, X. Li, H. P. Hratchian, 
 A. F. Izmaylov, J. Bloino, G. Zheng, J. L. Sonnenberg, M. Hada, 
 M. Ehara, K. Toyota, R. Fukuda, J. Hasegawa, M. Ishida, T. Nakajima, 
 Y. Honda, O. Kitao, H. Nakai, T. Vreven, J. A. Montgomery, Jr., 
 J. E. Peralta, F. Ogliaro, M. Bearpark, J. J. Heyd, E. Brothers, 
 K. N. Kudin, V. N. Staroverov, T. Keith, R. Kobayashi, J. Normand, 
 K. Raghavachari, A. Rendell, J. C. Burant, S. S. Iyengar, J. Tomasi, 
 M. Cossi, N. Rega, J. M. Millam, M. Klene, J. E. Knox, J. B. Cross, 
 V. Bakken, C. Adamo, J. Jaramillo, R. Gomperts, R. E. Stratmann, 
 O. Yazyev, A. J. Austin, R. Cammi, C. Pomelli, J. W. Ochterski, 
 R. L. Martin, K. Morokuma, V. G. Zakrzewski, G. A. Voth, 
 P. Salvador, J. J. Dannenberg, S. Dapprich, A. D. Daniels, 
 O. Farkas, J. B. Foresman, J. V. Ortiz, J. Cioslowski, 
 and D. J. Fox, Gaussian, Inc., Wallingford CT, 2013.
 
 ******************************************
 Gaussian 09:  ES64L-G09RevD.01 24-Apr-2013
                21-Jul-2020 
 ******************************************
 %nprocshared=20
 Will use up to   20 processors via shared memory.
 -----------------------------------------------------
 #opt M06/lanl2dz integral=ultrafine geom=connectivity
 -----------------------------------------------------
 1/14=-1,18=20,19=15,26=4,38=1,57=2/1,3;
 2/9=110,12=2,17=6,18=5,40=1/2;
 3/5=6,6=3,11=2,16=1,25=1,30=1,71=1,74=-54,75=-5/1,2,3;
 4//1;
 5/5=2,38=5/2;
 6/7=2,8=2,9=2,10=2,28=1/1;
 7//1,2,3,16;
 1/14=-1,18=20,19=15,26=4/3(2);
 2/9=110/2;
 99//99;
 2/9=110/2;
 3/5=6,6=3,11=2,16=1,25=1,30=1,71=1,74=-54,75=-5/1,2,3;
 4/5=5,16=3,69=1/1;
 5/5=2,38=5/2;
 7//1,2,3,16;
 1/14=-1,18=20,19=15,26=4/3(-5);
 2/9=110/2;
 6/7=2,8=2,9=2,10=2,19=2,28=1/1;
 99/9=1/99;
 -------------------
 Title Card Required
 -------------------
 Symbolic Z-matrix:
 Charge =  0 Multiplicity = 1
 N                     2.84088  -0.95448   0.38488 
 C                     3.185     0.49028   0.51637 
 C                     4.69998   0.5117    0.43045 
 C                     4.00188  -1.85414   0.6523 
 C                     5.20166  -0.936     0.50518 
 H                     2.82318   0.88558   1.47457 
 H                     2.6962    1.04888  -0.28526 
 H                     4.00977  -2.67577  -0.06246 
 H                     3.94866  -2.26861   1.66677 
 H                     5.24358   1.31307   0.91328 
 O                    -2.94517  -3.53934  -0.16557 
 O                    -5.4348   -2.463    -0.39443 
 O                    -5.62987  -0.19106  -0.48189 
 N                    -1.58794   0.38723  -0.15028 
 N                     0.62561  -0.36363   0.11282 
 C                    -0.66762  -0.67715  -0.02058 
 C                    -1.15706  -1.98678  -0.03199 
 C                    -2.92367   0.09374  -0.24668 
 C                    -3.44763  -1.16519  -0.26088 
 C                    -2.58537  -2.34635  -0.15784 
 C                    -0.20207  -3.0092    0.10343 
 C                     1.5467   -1.34197   0.24504 
 H                     6.10561  -1.18745   1.0464 
 C                     1.12073  -2.70314   0.23758 
 C                    -4.91465  -1.19505  -0.38811 
 H                    -3.60381   0.93104  -0.31708 
 H                    -0.55119  -4.03356   0.10349 
 H                    -6.42453  -2.37705  -0.48282 
 C                    -0.41288   4.44301  -0.11319 
 C                     0.20026   3.56893  -1.0038 
 C                    -0.17911   2.23089  -1.01929 
 C                    -1.39699   3.99777   0.75601 
 C                    -1.75704   2.66011   0.73894 
 C                    -1.15997   1.758    -0.14437 
 F                    -0.04993   5.75897  -0.0955 
 H                     0.29009   1.54045  -1.70291 
 F                     2.05868  -3.70351   0.38137 
 C                     5.31388  -0.17835  -0.8032 
 H                     7.38609  -0.02552  -0.63328 
 H                     6.70218   1.0749   -1.71716 
 N                     6.6301    0.14868  -1.29449 
 H                     4.60164  -0.46213  -1.57551 
 H                    -1.87802   4.67788   1.44236 
 H                     0.95639   3.94252  -1.6794 
 F                    -2.7403    2.21916   1.58095 
 

 GradGradGradGradGradGradGradGradGradGradGradGradGradGradGradGradGradGrad
 Berny optimization.
 Initialization pass.
                           ----------------------------
                           !    Initial Parameters    !
                           ! (Angstroms and Degrees)  !
 --------------------------                            --------------------------
 ! Name  Definition              Value          Derivative Info.                !
 --------------------------------------------------------------------------------
 ! R1    R(1,2)                  1.491          estimate D2E/DX2                !
 ! R2    R(1,4)                  1.4929         estimate D2E/DX2                !
 ! R3    R(1,22)                 1.3582         estimate D2E/DX2                !
 ! R4    R(2,3)                  1.5176         estimate D2E/DX2                !
 ! R5    R(2,6)                  1.0979         estimate D2E/DX2                !
 ! R6    R(2,7)                  1.0925         estimate D2E/DX2                !
 ! R7    R(3,5)                  1.534          estimate D2E/DX2                !
 ! R8    R(3,10)                 1.082          estimate D2E/DX2                !
 ! R9    R(3,38)                 1.5411         estimate D2E/DX2                !
 ! R10   R(4,5)                  1.5179         estimate D2E/DX2                !
 ! R11   R(4,8)                  1.089          estimate D2E/DX2                !
 ! R12   R(4,9)                  1.0972         estimate D2E/DX2                !
 ! R13   R(5,23)                 1.0832         estimate D2E/DX2                !
 ! R14   R(5,38)                 1.5161         estimate D2E/DX2                !
 ! R15   R(11,20)                1.2461         estimate D2E/DX2                !
 ! R16   R(12,25)                1.3705         estimate D2E/DX2                !
 ! R17   R(12,28)                0.9974         estimate D2E/DX2                !
 ! R18   R(13,25)                1.2363         estimate D2E/DX2                !
 ! R19   R(14,16)                1.4131         estimate D2E/DX2                !
 ! R20   R(14,18)                1.371          estimate D2E/DX2                !
 ! R21   R(14,34)                1.436          estimate D2E/DX2                !
 ! R22   R(15,16)                1.3374         estimate D2E/DX2                !
 ! R23   R(15,22)                1.3502         estimate D2E/DX2                !
 ! R24   R(16,17)                1.3981         estimate D2E/DX2                !
 ! R25   R(17,20)                1.4782         estimate D2E/DX2                !
 ! R26   R(17,21)                1.4056         estimate D2E/DX2                !
 ! R27   R(18,19)                1.3637         estimate D2E/DX2                !
 ! R28   R(18,26)                1.081          estimate D2E/DX2                !
 ! R29   R(19,20)                1.466          estimate D2E/DX2                !
 ! R30   R(19,25)                1.4728         estimate D2E/DX2                !
 ! R31   R(21,24)                1.3644         estimate D2E/DX2                !
 ! R32   R(21,27)                1.0822         estimate D2E/DX2                !
 ! R33   R(22,24)                1.4263         estimate D2E/DX2                !
 ! R34   R(24,37)                1.3788         estimate D2E/DX2                !
 ! R35   R(29,30)                1.3904         estimate D2E/DX2                !
 ! R36   R(29,32)                1.3864         estimate D2E/DX2                !
 ! R37   R(29,35)                1.3652         estimate D2E/DX2                !
 ! R38   R(30,31)                1.3909         estimate D2E/DX2                !
 ! R39   R(30,44)                1.0806         estimate D2E/DX2                !
 ! R40   R(31,34)                1.3969         estimate D2E/DX2                !
 ! R41   R(31,36)                1.079          estimate D2E/DX2                !
 ! R42   R(32,33)                1.3854         estimate D2E/DX2                !
 ! R43   R(32,43)                1.0794         estimate D2E/DX2                !
 ! R44   R(33,34)                1.3966         estimate D2E/DX2                !
 ! R45   R(33,45)                1.3676         estimate D2E/DX2                !
 ! R46   R(38,41)                1.4425         estimate D2E/DX2                !
 ! R47   R(38,42)                1.0882         estimate D2E/DX2                !
 ! R48   R(39,41)                1.0193         estimate D2E/DX2                !
 ! R49   R(40,41)                1.0206         estimate D2E/DX2                !
 ! A1    A(2,1,4)              112.8704         estimate D2E/DX2                !
 ! A2    A(2,1,22)             120.3623         estimate D2E/DX2                !
 ! A3    A(4,1,22)             125.9832         estimate D2E/DX2                !
 ! A4    A(1,2,3)              103.8327         estimate D2E/DX2                !
 ! A5    A(1,2,6)              110.4747         estimate D2E/DX2                !
 ! A6    A(1,2,7)              109.1158         estimate D2E/DX2                !
 ! A7    A(3,2,6)              111.9215         estimate D2E/DX2                !
 ! A8    A(3,2,7)              113.4466         estimate D2E/DX2                !
 ! A9    A(6,2,7)              107.9905         estimate D2E/DX2                !
 ! A10   A(2,3,5)              108.084          estimate D2E/DX2                !
 ! A11   A(2,3,10)             119.1248         estimate D2E/DX2                !
 ! A12   A(2,3,38)             115.8922         estimate D2E/DX2                !
 ! A13   A(5,3,10)             120.8585         estimate D2E/DX2                !
 ! A14   A(10,3,38)            119.2547         estimate D2E/DX2                !
 ! A15   A(1,4,5)              103.4627         estimate D2E/DX2                !
 ! A16   A(1,4,8)              110.0424         estimate D2E/DX2                !
 ! A17   A(1,4,9)              110.8265         estimate D2E/DX2                !
 ! A18   A(5,4,8)              112.7684         estimate D2E/DX2                !
 ! A19   A(5,4,9)              110.8827         estimate D2E/DX2                !
 ! A20   A(8,4,9)              108.796          estimate D2E/DX2                !
 ! A21   A(3,5,4)              108.4858         estimate D2E/DX2                !
 ! A22   A(3,5,23)             121.0876         estimate D2E/DX2                !
 ! A23   A(4,5,23)             118.0853         estimate D2E/DX2                !
 ! A24   A(4,5,38)             116.3869         estimate D2E/DX2                !
 ! A25   A(23,5,38)            119.0415         estimate D2E/DX2                !
 ! A26   A(25,12,28)           107.2961         estimate D2E/DX2                !
 ! A27   A(16,14,18)           118.669          estimate D2E/DX2                !
 ! A28   A(16,14,34)           121.6373         estimate D2E/DX2                !
 ! A29   A(18,14,34)           119.6691         estimate D2E/DX2                !
 ! A30   A(16,15,22)           119.9719         estimate D2E/DX2                !
 ! A31   A(14,16,15)           117.5401         estimate D2E/DX2                !
 ! A32   A(14,16,17)           118.4781         estimate D2E/DX2                !
 ! A33   A(15,16,17)           123.981          estimate D2E/DX2                !
 ! A34   A(16,17,20)           124.5255         estimate D2E/DX2                !
 ! A35   A(16,17,21)           116.2777         estimate D2E/DX2                !
 ! A36   A(20,17,21)           119.1921         estimate D2E/DX2                !
 ! A37   A(14,18,19)           124.9388         estimate D2E/DX2                !
 ! A38   A(14,18,26)           116.8562         estimate D2E/DX2                !
 ! A39   A(19,18,26)           118.205          estimate D2E/DX2                !
 ! A40   A(18,19,20)           121.1366         estimate D2E/DX2                !
 ! A41   A(18,19,25)           113.7232         estimate D2E/DX2                !
 ! A42   A(20,19,25)           125.1401         estimate D2E/DX2                !
 ! A43   A(11,20,17)           120.8232         estimate D2E/DX2                !
 ! A44   A(11,20,19)           126.9482         estimate D2E/DX2                !
 ! A45   A(17,20,19)           112.2284         estimate D2E/DX2                !
 ! A46   A(17,21,24)           120.3328         estimate D2E/DX2                !
 ! A47   A(17,21,27)           117.9914         estimate D2E/DX2                !
 ! A48   A(24,21,27)           121.6748         estimate D2E/DX2                !
 ! A49   A(1,22,15)            116.9624         estimate D2E/DX2                !
 ! A50   A(1,22,24)            123.8763         estimate D2E/DX2                !
 ! A51   A(15,22,24)           119.1606         estimate D2E/DX2                !
 ! A52   A(21,24,22)           120.2756         estimate D2E/DX2                !
 ! A53   A(21,24,37)           120.466          estimate D2E/DX2                !
 ! A54   A(22,24,37)           119.2549         estimate D2E/DX2                !
 ! A55   A(12,25,13)           122.102          estimate D2E/DX2                !
 ! A56   A(12,25,19)           113.4024         estimate D2E/DX2                !
 ! A57   A(13,25,19)           124.4956         estimate D2E/DX2                !
 ! A58   A(30,29,32)           120.8444         estimate D2E/DX2                !
 ! A59   A(30,29,35)           119.8049         estimate D2E/DX2                !
 ! A60   A(32,29,35)           119.3497         estimate D2E/DX2                !
 ! A61   A(29,30,31)           119.4486         estimate D2E/DX2                !
 ! A62   A(29,30,44)           119.4524         estimate D2E/DX2                !
 ! A63   A(31,30,44)           121.096          estimate D2E/DX2                !
 ! A64   A(30,31,34)           120.6792         estimate D2E/DX2                !
 ! A65   A(30,31,36)           120.2681         estimate D2E/DX2                !
 ! A66   A(34,31,36)           119.0495         estimate D2E/DX2                !
 ! A67   A(29,32,33)           119.1324         estimate D2E/DX2                !
 ! A68   A(29,32,43)           120.8395         estimate D2E/DX2                !
 ! A69   A(33,32,43)           120.0276         estimate D2E/DX2                !
 ! A70   A(32,33,34)           121.3565         estimate D2E/DX2                !
 ! A71   A(32,33,45)           119.3802         estimate D2E/DX2                !
 ! A72   A(34,33,45)           119.2435         estimate D2E/DX2                !
 ! A73   A(14,34,31)           121.9951         estimate D2E/DX2                !
 ! A74   A(14,34,33)           119.4562         estimate D2E/DX2                !
 ! A75   A(31,34,33)           118.5336         estimate D2E/DX2                !
 ! A76   A(3,38,41)            122.3176         estimate D2E/DX2                !
 ! A77   A(3,38,42)            115.0973         estimate D2E/DX2                !
 ! A78   A(5,38,41)            118.3443         estimate D2E/DX2                !
 ! A79   A(5,38,42)            115.7025         estimate D2E/DX2                !
 ! A80   A(41,38,42)           114.4947         estimate D2E/DX2                !
 ! A81   A(38,41,39)           114.6493         estimate D2E/DX2                !
 ! A82   A(38,41,40)           114.2817         estimate D2E/DX2                !
 ! A83   A(39,41,40)           111.7978         estimate D2E/DX2                !
 ! D1    D(4,1,2,3)             18.0526         estimate D2E/DX2                !
 ! D2    D(4,1,2,6)           -102.1031         estimate D2E/DX2                !
 ! D3    D(4,1,2,7)            139.32           estimate D2E/DX2                !
 ! D4    D(22,1,2,3)          -171.497          estimate D2E/DX2                !
 ! D5    D(22,1,2,6)            68.3473         estimate D2E/DX2                !
 ! D6    D(22,1,2,7)           -50.2295         estimate D2E/DX2                !
 ! D7    D(2,1,4,5)            -18.3559         estimate D2E/DX2                !
 ! D8    D(2,1,4,8)           -139.0815         estimate D2E/DX2                !
 ! D9    D(2,1,4,9)            100.5397         estimate D2E/DX2                !
 ! D10   D(22,1,4,5)           171.8335         estimate D2E/DX2                !
 ! D11   D(22,1,4,8)            51.1079         estimate D2E/DX2                !
 ! D12   D(22,1,4,9)           -69.271          estimate D2E/DX2                !
 ! D13   D(2,1,22,15)            5.7271         estimate D2E/DX2                !
 ! D14   D(2,1,22,24)         -173.9651         estimate D2E/DX2                !
 ! D15   D(4,1,22,15)          174.8383         estimate D2E/DX2                !
 ! D16   D(4,1,22,24)           -4.8539         estimate D2E/DX2                !
 ! D17   D(1,2,3,5)            -10.0282         estimate D2E/DX2                !
 ! D18   D(1,2,3,10)          -153.1208         estimate D2E/DX2                !
 ! D19   D(1,2,3,38)            53.7159         estimate D2E/DX2                !
 ! D20   D(6,2,3,5)            109.1422         estimate D2E/DX2                !
 ! D21   D(6,2,3,10)           -33.9503         estimate D2E/DX2                !
 ! D22   D(6,2,3,38)           172.8863         estimate D2E/DX2                !
 ! D23   D(7,2,3,5)           -128.3488         estimate D2E/DX2                !
 ! D24   D(7,2,3,10)            88.5586         estimate D2E/DX2                !
 ! D25   D(7,2,3,38)           -64.6047         estimate D2E/DX2                !
 ! D26   D(2,3,5,4)             -0.6011         estimate D2E/DX2                !
 ! D27   D(2,3,5,23)          -141.974          estimate D2E/DX2                !
 ! D28   D(10,3,5,4)           141.7294         estimate D2E/DX2                !
 ! D29   D(10,3,5,23)            0.3566         estimate D2E/DX2                !
 ! D30   D(2,3,38,41)          157.0223         estimate D2E/DX2                !
 ! D31   D(2,3,38,42)           10.0876         estimate D2E/DX2                !
 ! D32   D(10,3,38,41)           3.8957         estimate D2E/DX2                !
 ! D33   D(10,3,38,42)        -143.039          estimate D2E/DX2                !
 ! D34   D(1,4,5,3)             10.935          estimate D2E/DX2                !
 ! D35   D(1,4,5,23)           153.638          estimate D2E/DX2                !
 ! D36   D(1,4,5,38)           -54.8439         estimate D2E/DX2                !
 ! D37   D(8,4,5,3)            129.7939         estimate D2E/DX2                !
 ! D38   D(8,4,5,23)           -87.5031         estimate D2E/DX2                !
 ! D39   D(8,4,5,38)            64.015          estimate D2E/DX2                !
 ! D40   D(9,4,5,3)           -107.9217         estimate D2E/DX2                !
 ! D41   D(9,4,5,23)            34.7813         estimate D2E/DX2                !
 ! D42   D(9,4,5,38)          -173.7006         estimate D2E/DX2                !
 ! D43   D(4,5,38,41)         -149.6497         estimate D2E/DX2                !
 ! D44   D(4,5,38,42)           -8.1633         estimate D2E/DX2                !
 ! D45   D(23,5,38,41)           1.5843         estimate D2E/DX2                !
 ! D46   D(23,5,38,42)         143.0707         estimate D2E/DX2                !
 ! D47   D(28,12,25,13)         -0.0616         estimate D2E/DX2                !
 ! D48   D(28,12,25,19)        179.9568         estimate D2E/DX2                !
 ! D49   D(18,14,16,15)       -178.0025         estimate D2E/DX2                !
 ! D50   D(18,14,16,17)          1.677          estimate D2E/DX2                !
 ! D51   D(34,14,16,15)          0.1877         estimate D2E/DX2                !
 ! D52   D(34,14,16,17)        179.8672         estimate D2E/DX2                !
 ! D53   D(16,14,18,19)         -1.7102         estimate D2E/DX2                !
 ! D54   D(16,14,18,26)        178.3448         estimate D2E/DX2                !
 ! D55   D(34,14,18,19)       -179.9369         estimate D2E/DX2                !
 ! D56   D(34,14,18,26)          0.1181         estimate D2E/DX2                !
 ! D57   D(16,14,34,31)         54.1614         estimate D2E/DX2                !
 ! D58   D(16,14,34,33)       -127.2753         estimate D2E/DX2                !
 ! D59   D(18,14,34,31)       -127.6661         estimate D2E/DX2                !
 ! D60   D(18,14,34,33)         50.8972         estimate D2E/DX2                !
 ! D61   D(22,15,16,14)        179.768          estimate D2E/DX2                !
 ! D62   D(22,15,16,17)          0.1077         estimate D2E/DX2                !
 ! D63   D(16,15,22,1)        -179.5941         estimate D2E/DX2                !
 ! D64   D(16,15,22,24)          0.1133         estimate D2E/DX2                !
 ! D65   D(14,16,17,20)         -0.6411         estimate D2E/DX2                !
 ! D66   D(14,16,17,21)       -179.8483         estimate D2E/DX2                !
 ! D67   D(15,16,17,20)        179.0163         estimate D2E/DX2                !
 ! D68   D(15,16,17,21)         -0.1909         estimate D2E/DX2                !
 ! D69   D(16,17,20,11)        179.7071         estimate D2E/DX2                !
 ! D70   D(16,17,20,19)         -0.4329         estimate D2E/DX2                !
 ! D71   D(21,17,20,11)         -1.1071         estimate D2E/DX2                !
 ! D72   D(21,17,20,19)        178.7528         estimate D2E/DX2                !
 ! D73   D(16,17,21,24)          0.0503         estimate D2E/DX2                !
 ! D74   D(16,17,21,27)        179.6817         estimate D2E/DX2                !
 ! D75   D(20,17,21,24)       -179.2015         estimate D2E/DX2                !
 ! D76   D(20,17,21,27)          0.4299         estimate D2E/DX2                !
 ! D77   D(14,18,19,20)          0.5694         estimate D2E/DX2                !
 ! D78   D(14,18,19,25)       -179.3516         estimate D2E/DX2                !
 ! D79   D(26,18,19,20)       -179.4864         estimate D2E/DX2                !
 ! D80   D(26,18,19,25)          0.5927         estimate D2E/DX2                !
 ! D81   D(18,19,20,11)       -179.6547         estimate D2E/DX2                !
 ! D82   D(18,19,20,17)          0.4958         estimate D2E/DX2                !
 ! D83   D(25,19,20,11)          0.2568         estimate D2E/DX2                !
 ! D84   D(25,19,20,17)       -179.5927         estimate D2E/DX2                !
 ! D85   D(18,19,25,12)       -179.6682         estimate D2E/DX2                !
 ! D86   D(18,19,25,13)          0.3507         estimate D2E/DX2                !
 ! D87   D(20,19,25,12)          0.4146         estimate D2E/DX2                !
 ! D88   D(20,19,25,13)       -179.5665         estimate D2E/DX2                !
 ! D89   D(17,21,24,22)          0.1588         estimate D2E/DX2                !
 ! D90   D(17,21,24,37)        179.4775         estimate D2E/DX2                !
 ! D91   D(27,21,24,22)       -179.4588         estimate D2E/DX2                !
 ! D92   D(27,21,24,37)         -0.14           estimate D2E/DX2                !
 ! D93   D(1,22,24,21)         179.44           estimate D2E/DX2                !
 ! D94   D(1,22,24,37)           0.113          estimate D2E/DX2                !
 ! D95   D(15,22,24,21)         -0.2459         estimate D2E/DX2                !
 ! D96   D(15,22,24,37)       -179.5729         estimate D2E/DX2                !
 ! D97   D(32,29,30,31)         -0.0975         estimate D2E/DX2                !
 ! D98   D(32,29,30,44)        179.2786         estimate D2E/DX2                !
 ! D99   D(35,29,30,31)       -179.7373         estimate D2E/DX2                !
 ! D100  D(35,29,30,44)         -0.3612         estimate D2E/DX2                !
 ! D101  D(30,29,32,33)          0.6819         estimate D2E/DX2                !
 ! D102  D(30,29,32,43)       -179.5486         estimate D2E/DX2                !
 ! D103  D(35,29,32,33)       -179.6766         estimate D2E/DX2                !
 ! D104  D(35,29,32,43)          0.0929         estimate D2E/DX2                !
 ! D105  D(29,30,31,34)         -0.4704         estimate D2E/DX2                !
 ! D106  D(29,30,31,36)       -179.8143         estimate D2E/DX2                !
 ! D107  D(44,30,31,34)       -179.836          estimate D2E/DX2                !
 ! D108  D(44,30,31,36)          0.8201         estimate D2E/DX2                !
 ! D109  D(30,31,34,14)        179.014          estimate D2E/DX2                !
 ! D110  D(30,31,34,33)          0.4379         estimate D2E/DX2                !
 ! D111  D(36,31,34,14)         -1.6342         estimate D2E/DX2                !
 ! D112  D(36,31,34,33)        179.7897         estimate D2E/DX2                !
 ! D113  D(29,32,33,34)         -0.715          estimate D2E/DX2                !
 ! D114  D(29,32,33,45)       -179.0866         estimate D2E/DX2                !
 ! D115  D(43,32,33,34)        179.5135         estimate D2E/DX2                !
 ! D116  D(43,32,33,45)          1.142          estimate D2E/DX2                !
 ! D117  D(32,33,34,14)       -178.4526         estimate D2E/DX2                !
 ! D118  D(32,33,34,31)          0.1606         estimate D2E/DX2                !
 ! D119  D(45,33,34,14)         -0.0789         estimate D2E/DX2                !
 ! D120  D(45,33,34,31)        178.5343         estimate D2E/DX2                !
 ! D121  D(3,38,41,39)          61.1801         estimate D2E/DX2                !
 ! D122  D(3,38,41,40)         -69.7568         estimate D2E/DX2                !
 ! D123  D(5,38,41,39)          -9.7715         estimate D2E/DX2                !
 ! D124  D(5,38,41,40)        -140.7084         estimate D2E/DX2                !
 ! D125  D(42,38,41,39)       -151.7046         estimate D2E/DX2                !
 ! D126  D(42,38,41,40)         77.3585         estimate D2E/DX2                !
 --------------------------------------------------------------------------------
 Trust Radius=3.00D-01 FncErr=1.00D-07 GrdErr=1.00D-06
 Number of steps in this run=    268 maximum allowed number of steps=    270.
 GradGradGradGradGradGradGradGradGradGradGradGradGradGradGradGradGradGrad

                          Input orientation:                          
 ---------------------------------------------------------------------
 Center     Atomic      Atomic             Coordinates (Angstroms)
 Number     Number       Type             X           Y           Z
 ---------------------------------------------------------------------
      1          7           0        2.840876   -0.954476    0.384881
      2          6           0        3.184997    0.490283    0.516369
      3          6           0        4.699980    0.511696    0.430454
      4          6           0        4.001885   -1.854141    0.652299
      5          6           0        5.201657   -0.936004    0.505181
      6          1           0        2.823175    0.885575    1.474574
      7          1           0        2.696200    1.048882   -0.285256
      8          1           0        4.009772   -2.675773   -0.062459
      9          1           0        3.948658   -2.268606    1.666768
     10          1           0        5.243579    1.313074    0.913275
     11          8           0       -2.945169   -3.539337   -0.165567
     12          8           0       -5.434799   -2.462996   -0.394434
     13          8           0       -5.629866   -0.191055   -0.481891
     14          7           0       -1.587938    0.387231   -0.150277
     15          7           0        0.625607   -0.363628    0.112815
     16          6           0       -0.667624   -0.677154   -0.020582
     17          6           0       -1.157057   -1.986775   -0.031992
     18          6           0       -2.923669    0.093739   -0.246682
     19          6           0       -3.447626   -1.165191   -0.260880
     20          6           0       -2.585373   -2.346345   -0.157838
     21          6           0       -0.202069   -3.009200    0.103429
     22          6           0        1.546695   -1.341965    0.245038
     23          1           0        6.105613   -1.187448    1.046404
     24          6           0        1.120730   -2.703135    0.237576
     25          6           0       -4.914649   -1.195047   -0.388108
     26          1           0       -3.603808    0.931036   -0.317075
     27          1           0       -0.551185   -4.033563    0.103485
     28          1           0       -6.424526   -2.377054   -0.482820
     29          6           0       -0.412880    4.443011   -0.113187
     30          6           0        0.200259    3.568929   -1.003796
     31          6           0       -0.179110    2.230892   -1.019294
     32          6           0       -1.396986    3.997768    0.756014
     33          6           0       -1.757037    2.660106    0.738942
     34          6           0       -1.159968    1.758002   -0.144374
     35          9           0       -0.049930    5.758965   -0.095495
     36          1           0        0.290091    1.540454   -1.702911
     37          9           0        2.058684   -3.703514    0.381370
     38          6           0        5.313881   -0.178352   -0.803202
     39          1           0        7.386092   -0.025518   -0.633283
     40          1           0        6.702181    1.074898   -1.717162
     41          7           0        6.630102    0.148683   -1.294487
     42          1           0        4.601644   -0.462130   -1.575514
     43          1           0       -1.878018    4.677882    1.442359
     44          1           0        0.956389    3.942517   -1.679396
     45          9           0       -2.740303    2.219159    1.580948
 ---------------------------------------------------------------------
                    Distance matrix (angstroms):
                    1          2          3          4          5
     1  N    0.000000
     2  C    1.490985   0.000000
     3  C    2.368123   1.517568   0.000000
     4  C    1.492934   2.486384   2.476638   0.000000
     5  C    2.363916   2.470089   1.533981   1.517917   0.000000
     6  H    2.138582   1.097874   2.179993   3.093790   3.148817
     7  H    2.117418   1.092501   2.194526   3.318338   3.292701
     8  H    2.128214   3.322530   3.298380   1.089046   2.183942
     9  H    2.144144   3.085136   3.134172   1.097161   2.166822
    10  H    3.345738   2.252172   1.082046   3.411915   2.286187
    11  O    6.361039   7.367619   8.672624   7.195162   8.578929
    12  O    8.448063   9.157090  10.594479   9.514061  10.783098
    13  O    8.549127   8.897334  10.393842   9.839861  10.901887
    14  N    4.658429   4.820368   6.315905   6.075689   6.948322
    15  N    2.308796   2.728094   4.179426   3.729869   4.628369
    16  C    3.542722   4.061270   5.516155   4.862343   5.898465
    17  C    4.150047   5.028911   6.384442   5.205817   6.467296
    18  C    5.893013   6.168897   7.665065   7.250221   8.224755
    19  C    6.325082   6.880145   8.347058   7.536827   8.686166
    20  C    5.628145   6.465151   7.847984   6.655115   7.941441
    21  C    3.682475   4.887649   6.044315   4.394161   5.801707
    22  C    1.358164   2.472809   3.662464   2.540894   3.686628
    23  H    3.339221   3.409650   2.289605   2.241756   1.083182
    24  C    2.457318   3.812721   4.814911   3.032135   4.455146
    25  C    7.797663   8.322420   9.799189   9.001190  10.158972
    26  H    6.751433   6.853960   8.347906   8.157418   9.038703
    27  H    4.589775   5.881727   6.952771   5.077551   6.546100
    28  H    9.414048  10.077844  11.529683  10.501047  11.756739
    29  C    6.322014   5.381925   6.472412   7.728534   7.799949
    30  C    5.418715   4.549464   5.625943   6.826763   6.898218
    31  C    4.608535   4.087199   5.372422   6.079674   6.426967
    32  C    6.528548   5.775331   7.030767   7.962625   8.243004
    33  C    5.859297   5.401978   6.812041   7.317863   7.836458
    34  C    4.862551   4.574102   6.018529   6.350354   6.939010
    35  F    7.325149   6.212740   7.097330   8.656546   8.530099
    36  H    4.134012   3.795859   5.005668   5.554071   5.927225
    37  F    2.858154   4.344507   4.974621   2.696222   4.189597
    38  C    2.851256   2.592390   1.541087   2.578388   1.516079
    39  H    4.749590   4.385995   2.938594   4.055791   2.626184
    40  H    4.842171   4.207258   2.989692   4.635214   3.351732
    41  N    4.288994   3.906999   2.613919   3.835206   2.540828
    42  H    2.680645   2.699991   2.232020   2.694542   2.216724
    43  H    7.423589   6.635327   7.851822   8.824102   9.083822
    44  H    5.638534   4.658970   5.498770   6.950762   6.826027
    45  F    6.530857   6.263507   7.719901   7.931662   8.613191
                    6          7          8          9         10
     6  H    0.000000
     7  H    1.771946   0.000000
     8  H    4.056314   3.955776   0.000000
     9  H    3.354476   4.047811   1.777567   0.000000
    10  H    2.521144   2.827616   4.287801   3.882397   0.000000
    11  O    7.452765   7.272628   7.009107   7.245485   9.579425
    12  O    9.104958   8.857672   9.452799   9.609142  11.401604
    13  O    8.743042   8.420183   9.963552  10.033996  11.065293
    14  N    4.727198   4.337031   6.381541   6.403828   6.975525
    15  N    2.871272   2.537913   4.102354   4.133567   4.977723
    16  C    4.106494   3.790061   5.086675   5.166230   6.306776
    17  C    5.134431   4.911919   5.212655   5.388278   7.262966
    18  C    6.051111   5.700589   7.468383   7.514708   8.338838
    19  C    6.822052   6.530644   7.611440   7.722588   9.113588
    20  C    6.508646   6.280033   6.604056   6.784452   8.708107
    21  C    5.118732   5.001907   4.228274   4.496781   6.999499
    22  C    2.846593   2.705314   2.817862   2.940987   4.600296
    23  H    3.905785   4.289357   2.799507   2.491226   2.648289
    24  C    4.160207   4.102815   2.904709   3.198215   5.795204
    25  C    8.226329   7.935415   9.052286   9.161509  10.543902
    26  H    6.672195   6.301190   8.428553   8.438785   8.940692
    27  H    6.120793   6.043830   4.761666   5.080110   7.926006
    28  H    9.999806   9.744933  10.447034  10.594123  12.317094
    29  C    5.064424   4.606094   8.380901   8.199821   6.545659
    30  C    4.496932   3.618931   7.375284   7.433655   5.848001
    31  C    4.128313   3.194271   6.522088   6.670748   5.829474
    32  C    5.292621   5.151150   8.627809   8.286907   7.164455
    33  C    4.966735   4.845239   7.897464   7.596579   7.131165
    34  C    4.387203   3.923357   6.811115   6.752175   6.505536
    35  F    5.871097   5.455467   9.360934   9.139813   6.986043
    36  H    4.116041   2.835621   5.856934   6.264885   5.606530
    37  F    4.779046   4.841083   2.249440   2.698742   5.965956
    38  C    3.538901   2.937112   2.913162   3.511944   2.274992
    39  H    5.108166   4.823955   4.330038   4.705064   2.962099
    40  H    5.026899   4.254282   4.904553   5.496534   3.017192
    41  N    4.764809   4.159867   4.044944   4.669310   2.855252
    42  H    3.779193   2.752933   2.745881   3.768573   3.123700
    43  H    6.040186   6.089151   9.539748   9.069411   7.894239
    44  H    4.772558   3.652902   7.465882   7.663455   5.658260
    45  F    5.722067   5.865819   8.498509   8.055408   8.062825
                   11         12         13         14         15
    11  O    0.000000
    12  O    2.721975   0.000000
    13  O    4.303330   2.281976   0.000000
    14  N    4.154545   4.793928   4.096531   0.000000
    15  N    4.786759   6.433752   6.286048   2.352188   0.000000
    16  C    3.660645   5.104405   5.007289   1.413051   1.337363
    17  C    2.371842   4.319401   4.840769   2.415689   2.415257
    18  C    3.634045   3.586711   2.731288   1.370988   3.596635
    19  C    2.428604   2.377181   2.399991   2.425013   4.168138
    20  C    1.246091   2.861610   3.744225   2.909875   3.783492
    21  C    2.806778   5.284664   6.143738   3.677056   2.772037
    22  C    5.017358   7.099781   7.304522   3.601710   1.350196
    23  H    9.429576  11.699750  11.876445   7.943701   5.619674
    24  C    4.170527   6.590301   7.238696   4.127672   2.394578
    25  C    3.069865   1.370507   1.236257   3.691500   5.624644
    26  H    4.521172   3.857197   2.321888   2.094583   4.443975
    27  H    2.459229   5.154056   6.395352   4.547821   3.854004
    28  H    3.682048   0.997375   2.325957   5.580720   7.356157
    29  C    8.374551   8.543518   6.987664   4.222735   4.922734
    30  C    7.818171   8.277036   6.957027   3.748246   4.110079
    31  C    6.455654   7.074270   5.988770   2.477715   2.942919
    32  C    7.749460   7.705124   6.082427   3.727439   4.850398
    33  C    6.376746   6.407546   4.961689   2.446480   3.900256
    34  C    5.590098   6.012781   4.888019   1.436038   2.784913
    35  F    9.738878   9.832946   8.166255   5.587844   6.163269
    36  H    6.215675   7.107326   6.287679   2.695847   2.652350
    37  F    5.036332   7.634988   8.496846   5.505878   3.644265
    38  C    8.939503  10.996400  10.948470   6.955667   4.780515
    39  H   10.922483  13.052724  13.017891   8.996492   6.809929
    40  H   10.806016  12.711121  12.458247   8.464874   6.507144
    41  N   10.322876  12.377108  12.291564   8.300741   6.188451
    42  H    8.271127  10.301874  10.293361   6.408092   4.320767
    43  H    8.440789   8.186369   6.440935   4.585883   5.783826
    44  H    8.572746   9.139421   7.867604   4.631616   4.675930
    45  F    6.021010   5.751958   4.291155   2.771470   4.489494
                   16         17         18         19         20
    16  C    0.000000
    17  C    1.398135   0.000000
    18  C    2.394814   2.737800   0.000000
    19  C    2.832726   2.444196   1.363685   0.000000
    20  C    2.546134   1.478247   2.465025   1.466023   0.000000
    21  C    2.381293   1.405594   4.142211   3.750564   2.487524
    22  C    2.327173   2.793349   4.720931   5.022992   4.271425
    23  H    6.875725   7.385678   9.210942   9.642295   8.850225
    24  C    2.714674   2.402947   4.941070   4.845989   3.744176
    25  C    4.294241   3.856572   2.375915   1.472832   2.608455
    26  H    3.360857   3.818571   1.081023   2.102788   3.435665
    27  H    3.360719   2.138873   4.773460   4.092639   2.655732
    28  H    6.020402   5.301112   4.291454   3.221770   3.853006
    29  C    5.127335   6.473217   5.023749   6.378356   7.128610
    30  C    4.444002   5.801082   4.733824   6.022531   6.592864
    31  C    3.113327   4.440705   3.563279   4.774073   5.242452
    32  C    4.794785   6.040966   4.310174   5.647596   6.518831
    33  C    3.591796   4.748454   2.986423   4.300074   5.153145
    34  C    2.487511   3.746464   2.427113   3.713760   4.344839
    35  F    6.466126   7.824721   6.354213   7.714637   8.492845
    36  H    2.943677   4.162638   3.813377   4.834304   5.075702
    37  F    4.093064   3.668658   6.295826   6.097132   4.868256
    38  C    6.053074   6.763002   8.260810   8.833571   8.216745
    39  H    8.103232   8.785982  10.317696  10.899862  10.249019
    40  H    7.762866   8.601236   9.786826  10.495587  10.019733
    41  N    7.453968   8.172755   9.611215  10.215440   9.614682
    42  H    5.498112   6.153831   7.661927   8.186165   7.563946
    43  H    5.681695   6.863756   4.996060   6.285395   7.238836
    44  H    5.170149   6.506696   5.649833   6.891750   7.376246
    45  F    3.905064   4.774738   2.809139   3.917456   4.887863
                   21         22         23         24         25
    21  C    0.000000
    22  C    2.420310   0.000000
    23  H    6.632860   4.631392   0.000000
    24  C    1.364356   1.426284   5.272624   0.000000
    25  C    5.073576   6.493953  11.113238   6.252328   0.000000
    26  H    5.222462   5.657754  10.030947   5.986326   2.498715
    27  H    1.082221   3.415529   7.300851   2.140869   5.228638
    28  H    6.281900   8.071032  12.679041   7.586579   1.919854
    29  C    7.458338   6.118350   8.691230   7.317267   7.220056
    30  C    6.682784   5.243029   7.854912   6.459648   7.016896
    31  C    5.359067   4.164402   7.446469   5.254896   5.878842
    32  C    7.138018   6.118750   9.124680   7.177031   6.375602
    33  C    5.912938   5.212980   8.758965   6.107149   5.109106
    34  C    4.868798   4.133698   7.929836   5.024859   4.783047
    35  F    8.771741   7.286177   9.351326   8.549182   8.491725
    36  H    4.919801   3.698905   6.987165   4.739567   6.025030
    37  F    2.381245   2.420255   4.811496   1.378837   7.450629
    38  C    6.265891   4.079766   2.250812   5.004025  10.287312
    39  H    8.186897   6.050044   2.410613   6.868973  12.358646
    40  H    8.225757   6.022499   3.620967   7.017630  11.910910
    41  N    7.655387   5.516629   2.745925   6.390091  11.657976
    42  H    5.690525   3.663500   3.108450   4.519531   9.618052
    43  H    7.980775   7.028570   9.914496   8.057506   6.860250
    44  H    7.269585   5.654879   7.762798   6.918561   7.907659
    45  F    5.996785   5.731022   9.494258   6.398531   4.501307
                   26         27         28         29         30
    26  H    0.000000
    27  H    5.843169   0.000000
    28  H    4.350561   6.130572   0.000000
    29  C    4.749480   8.480471   9.098890   0.000000
    30  C    4.679849   7.719367   8.917057   1.390375   0.000000
    31  C    3.729785   6.375145   7.779858   2.401905   1.390864
    32  C    3.927649   8.102065   8.212748   1.386440   2.414959
    33  C    2.741426   6.831039   6.975037   2.389902   2.773825
    34  C    2.585740   5.828746   6.702895   2.787183   2.422453
    35  F    5.999004   9.807367  10.343128   1.365204   2.384085
    36  H    4.177844   5.919500   7.869026   3.383227   2.147450
    37  F    7.350557   2.645292   8.629668   8.527549   7.632880
    38  C    8.999569   7.076986  11.946846   7.391137   6.342829
    39  H   11.035981   8.922310  14.010194   9.003456   8.043229
    40  H   10.401651   9.056625  13.629014   8.033742   7.000291
    41  N   10.310205   8.427122  13.321466   8.333086   7.288722
    42  H    8.417483   6.490441  11.244436   7.165491   5.995706
    43  H    4.484731   8.913043   8.610991   2.149771   3.395981
    44  H    5.632081   8.310794   9.790132   2.139720   1.080618
    45  F    2.450998   6.787611   6.241619   3.637652   4.141218
                   31         32         33         34         35
    31  C    0.000000
    32  C    2.785102   0.000000
    33  C    2.401140   1.385376   0.000000
    34  C    1.396851   2.425578   1.396614   0.000000
    35  F    3.649300   2.375172   3.635028   4.152382   0.000000
    36  H    1.078975   3.864057   3.377425   2.139868   4.527166
    37  F    6.495133   8.449364   7.428543   6.361154   9.706295
    38  C    6.002008   8.056480   7.773862   6.789274   8.032624
    39  H    7.903966   9.760094   9.627688   8.743862   9.436307
    40  H    7.012525   8.958587   8.950067   8.046967   8.376234
    41  N    7.125777   9.135324   8.988113   8.037279   8.805434
    42  H    5.515193   7.830088   7.452375   6.338243   7.907567
    43  H    3.864425   1.079359   2.140292   3.399855   2.622144
    44  H    2.157488   3.387130   3.854299   3.406958   2.611686
    45  F    3.649809   2.376650   1.367560   2.384714   4.751715
                   36         37         38         39         40
    36  H    0.000000
    37  F    5.913658   0.000000
    38  C    5.385372   4.942296   0.000000
    39  H    7.345039   6.552744   2.084776   0.000000
    40  H    6.428985   6.985637   2.081666   1.689214   0.000000
    41  N    6.503812   6.208525   1.442481   1.019342   1.020649
    42  H    4.755635   4.560988   1.088245   2.971797   2.606679
    43  H    4.943367   9.320468   8.963758  10.594999   9.827710
    44  H    2.492872   7.995224   6.061107   7.627630   6.421744
    45  F    4.519697   7.716691   8.735108  10.605907  10.067143
                   41         42         43         44         45
    41  N    0.000000
    42  H    2.136986   0.000000
    43  H   10.019585   8.804164   0.000000
    44  H    6.836106   5.718356   4.280184   0.000000
    45  F   10.017958   8.429517   2.609226   5.221622   0.000000
 Stoichiometry    C20H15F3N4O3
 Framework group  C1[X(C20H15F3N4O3)]
 Deg. of freedom   129
 Full point group                 C1      NOp   1
 Largest Abelian subgroup         C1      NOp   1
 Largest concise Abelian subgroup C1      NOp   1
                         Standard orientation:                         
 ---------------------------------------------------------------------
 Center     Atomic      Atomic             Coordinates (Angstroms)
 Number     Number       Type             X           Y           Z
 ---------------------------------------------------------------------
      1          7           0        2.840876   -0.954476    0.384881
      2          6           0        3.184997    0.490283    0.516369
      3          6           0        4.699980    0.511696    0.430454
      4          6           0        4.001885   -1.854141    0.652299
      5          6           0        5.201657   -0.936004    0.505181
      6          1           0        2.823175    0.885575    1.474574
      7          1           0        2.696200    1.048882   -0.285256
      8          1           0        4.009772   -2.675773   -0.062459
      9          1           0        3.948658   -2.268606    1.666768
     10          1           0        5.243579    1.313074    0.913275
     11          8           0       -2.945169   -3.539337   -0.165567
     12          8           0       -5.434799   -2.462996   -0.394434
     13          8           0       -5.629866   -0.191055   -0.481891
     14          7           0       -1.587938    0.387231   -0.150277
     15          7           0        0.625607   -0.363628    0.112815
     16          6           0       -0.667624   -0.677154   -0.020582
     17          6           0       -1.157057   -1.986775   -0.031992
     18          6           0       -2.923669    0.093739   -0.246682
     19          6           0       -3.447626   -1.165191   -0.260880
     20          6           0       -2.585373   -2.346345   -0.157838
     21          6           0       -0.202069   -3.009200    0.103429
     22          6           0        1.546695   -1.341965    0.245038
     23          1           0        6.105613   -1.187448    1.046404
     24          6           0        1.120730   -2.703135    0.237576
     25          6           0       -4.914649   -1.195047   -0.388108
     26          1           0       -3.603808    0.931036   -0.317075
     27          1           0       -0.551185   -4.033563    0.103485
     28          1           0       -6.424526   -2.377054   -0.482820
     29          6           0       -0.412880    4.443011   -0.113187
     30          6           0        0.200259    3.568929   -1.003796
     31          6           0       -0.179110    2.230892   -1.019294
     32          6           0       -1.396986    3.997768    0.756014
     33          6           0       -1.757037    2.660106    0.738942
     34          6           0       -1.159968    1.758002   -0.144374
     35          9           0       -0.049930    5.758965   -0.095495
     36          1           0        0.290091    1.540454   -1.702911
     37          9           0        2.058684   -3.703514    0.381370
     38          6           0        5.313881   -0.178352   -0.803202
     39          1           0        7.386092   -0.025518   -0.633283
     40          1           0        6.702181    1.074898   -1.717162
     41          7           0        6.630102    0.148683   -1.294487
     42          1           0        4.601644   -0.462130   -1.575514
     43          1           0       -1.878018    4.677882    1.442359
     44          1           0        0.956389    3.942517   -1.679396
     45          9           0       -2.740303    2.219159    1.580948
 ---------------------------------------------------------------------
 Rotational constants (GHZ):      0.1843131      0.1104891      0.0724260
 Standard basis: LANL2DZ (5D, 7F)
 There are   300 symmetry adapted cartesian basis functions of A   symmetry.
 There are   300 symmetry adapted basis functions of A   symmetry.
   300 basis functions,   810 primitive gaussians,   300 cartesian basis functions
   107 alpha electrons      107 beta electrons
       nuclear repulsion energy      2875.8026348341 Hartrees.
 NAtoms=   45 NActive=   45 NUniq=   45 SFac= 1.00D+00 NAtFMM=   60 NAOKFM=F Big=F
 Integral buffers will be    131072 words long.
 Raffenetti 2 integral format.
 Two-electron integral symmetry is turned on.
 One-electron integrals computed using PRISM.
 PrsmSu:  requested number of processors reduced to:   8 ShMem   1 Linda.
   1 Symmetry operations used in ECPInt.
 ECPInt:  NShTT=   16290 NPrTT=  131190 LenC2=   14075 LenP2D=   59534.
 LDataN:  DoStor=T MaxTD1= 2 Len=   12
 Number of processors reduced to   7 by ecpmxn.
 NBasis=   300 RedAO= T EigKep=  3.78D-04  NBF=   300
 NBsUse=   300 1.00D-06 EigRej= -1.00D+00 NBFU=   300
 ExpMin= 1.15D-01 ExpMax= 1.00D+04 ExpMxC= 3.50D+02 IAcc=3 IRadAn=         5 AccDes= 0.00D+00
 Harris functional with IExCor= 1009 and IRadAn=       5 diagonalized for initial guess.
 HarFok:  IExCor= 1009 AccDes= 0.00D+00 IRadAn=         5 IDoV= 1 UseB2=F ITyADJ=14
 ICtDFT=  3500011 ScaDFX=  1.000000  1.000000  1.000000  1.000000
 FoFCou: FMM=F IPFlag=           0 FMFlag=      100000 FMFlg1=           0
         NFxFlg=           0 DoJE=T BraDBF=F KetDBF=T FulRan=T
         wScrn=  0.000000 ICntrl=     500 IOpCl=  0 I1Cent=   200000004 NGrid=           0
         NMat0=    1 NMatS0=      1 NMatT0=    0 NMatD0=    1 NMtDS0=    0 NMtDT0=    0
 Petite list used in FoFCou.
 Requested convergence on RMS density matrix=1.00D-08 within 128 cycles.
 Requested convergence on MAX density matrix=1.00D-06.
 Requested convergence on             energy=1.00D-06.
 No special actions if energy rises.
 Integral accuracy reduced to 1.0D-05 until final iterations.
 EnCoef did     2 forward-backward iterations
 Initial convergence to 1.0D-05 achieved.  Increase integral accuracy.
 SCF Done:  E(RM06) =  -1514.26215288     A.U. after   18 cycles
            NFock= 18  Conv=0.61D-08     -V/T= 2.0046

 **********************************************************************

            Population analysis using the SCF density.

 **********************************************************************

 Orbital symmetries:
       Occupied  (A) (A) (A) (A) (A) (A) (A) (A) (A) (A) (A) (A)
                 (A) (A) (A) (A) (A) (A) (A) (A) (A) (A) (A) (A)
                 (A) (A) (A) (A) (A) (A) (A) (A) (A) (A) (A) (A)
                 (A) (A) (A) (A) (A) (A) (A) (A) (A) (A) (A) (A)
                 (A) (A) (A) (A) (A) (A) (A) (A) (A) (A) (A) (A)
                 (A) (A) (A) (A) (A) (A) (A) (A) (A) (A) (A) (A)
                 (A) (A) (A) (A) (A) (A) (A) (A) (A) (A) (A) (A)
                 (A) (A) (A) (A) (A) (A) (A) (A) (A) (A) (A) (A)
                 (A) (A) (A) (A) (A) (A) (A) (A) (A) (A) (A)
       Virtual   (A) (A) (A) (A) (A) (A) (A) (A) (A) (A) (A) (A)
                 (A) (A) (A) (A) (A) (A) (A) (A) (A) (A) (A) (A)
                 (A) (A) (A) (A) (A) (A) (A) (A) (A) (A) (A) (A)
                 (A) (A) (A) (A) (A) (A) (A) (A) (A) (A) (A) (A)
                 (A) (A) (A) (A) (A) (A) (A) (A) (A) (A) (A) (A)
                 (A) (A) (A) (A) (A) (A) (A) (A) (A) (A) (A) (A)
                 (A) (A) (A) (A) (A) (A) (A) (A) (A) (A) (A) (A)
                 (A) (A) (A) (A) (A) (A) (A) (A) (A) (A) (A) (A)
                 (A) (A) (A) (A) (A) (A) (A) (A) (A) (A) (A) (A)
                 (A) (A) (A) (A) (A) (A) (A) (A) (A) (A) (A) (A)
                 (A) (A) (A) (A) (A) (A) (A) (A) (A) (A) (A) (A)
                 (A) (A) (A) (A) (A) (A) (A) (A) (A) (A) (A) (A)
                 (A) (A) (A) (A) (A) (A) (A) (A) (A) (A) (A) (A)
                 (A) (A) (A) (A) (A) (A) (A) (A) (A) (A) (A) (A)
                 (A) (A) (A) (A) (A) (A) (A) (A) (A) (A) (A) (A)
                 (A) (A) (A) (A) (A) (A) (A) (A) (A) (A) (A) (A)
                 (A)
 The electronic state is 1-A.
 Alpha  occ. eigenvalues --  -24.83352 -24.82622 -24.81720 -19.26478 -19.22026
 Alpha  occ. eigenvalues --  -19.19651 -14.49854 -14.45140 -14.42594 -14.39610
 Alpha  occ. eigenvalues --  -10.40567 -10.39017 -10.38600 -10.37336 -10.37090
 Alpha  occ. eigenvalues --  -10.36519 -10.35032 -10.34809 -10.34089 -10.30794
 Alpha  occ. eigenvalues --  -10.30732 -10.30487 -10.30211 -10.30210 -10.29908
 Alpha  occ. eigenvalues --  -10.29354 -10.28328 -10.28154 -10.28147 -10.27446
 Alpha  occ. eigenvalues --   -1.29406  -1.28656  -1.27391  -1.13762  -1.06207
 Alpha  occ. eigenvalues --   -1.05295  -1.04773  -1.02328  -0.97405  -0.93212
 Alpha  occ. eigenvalues --   -0.92642  -0.86715  -0.86359  -0.84158  -0.81606
 Alpha  occ. eigenvalues --   -0.81487  -0.79318  -0.77322  -0.73044  -0.71746
 Alpha  occ. eigenvalues --   -0.69496  -0.68319  -0.66852  -0.65006  -0.64270
 Alpha  occ. eigenvalues --   -0.61875  -0.61422  -0.60397  -0.59525  -0.59001
 Alpha  occ. eigenvalues --   -0.57838  -0.57010  -0.55233  -0.55135  -0.54460
 Alpha  occ. eigenvalues --   -0.52647  -0.51954  -0.51532  -0.51313  -0.50494
 Alpha  occ. eigenvalues --   -0.50327  -0.49709  -0.49027  -0.48679  -0.48629
 Alpha  occ. eigenvalues --   -0.48217  -0.47599  -0.47217  -0.46526  -0.45837
 Alpha  occ. eigenvalues --   -0.45497  -0.45207  -0.45097  -0.43770  -0.42708
 Alpha  occ. eigenvalues --   -0.42257  -0.42037  -0.41097  -0.40999  -0.40633
 Alpha  occ. eigenvalues --   -0.40558  -0.39762  -0.39680  -0.39406  -0.34522
 Alpha  occ. eigenvalues --   -0.33668  -0.33039  -0.31964  -0.31743  -0.31101
 Alpha  occ. eigenvalues --   -0.30393  -0.29864  -0.29521  -0.26096  -0.25271
 Alpha  occ. eigenvalues --   -0.24353  -0.23625
 Alpha virt. eigenvalues --   -0.06635  -0.04921  -0.04699  -0.03943  -0.00844
 Alpha virt. eigenvalues --    0.02250   0.05627   0.08278   0.08977   0.09108
 Alpha virt. eigenvalues --    0.09507   0.09980   0.10413   0.11126   0.11414
 Alpha virt. eigenvalues --    0.11721   0.12529   0.12987   0.14513   0.14841
 Alpha virt. eigenvalues --    0.15318   0.15512   0.15685   0.16310   0.16628
 Alpha virt. eigenvalues --    0.17034   0.17458   0.17982   0.18357   0.18802
 Alpha virt. eigenvalues --    0.19635   0.20770   0.21536   0.21903   0.22566
 Alpha virt. eigenvalues --    0.23451   0.23811   0.24290   0.24551   0.24786
 Alpha virt. eigenvalues --    0.25118   0.25823   0.26345   0.27028   0.27540
 Alpha virt. eigenvalues --    0.27568   0.28236   0.28842   0.29142   0.29817
 Alpha virt. eigenvalues --    0.30154   0.30234   0.30624   0.30844   0.31152
 Alpha virt. eigenvalues --    0.31961   0.32214   0.32493   0.33224   0.34180
 Alpha virt. eigenvalues --    0.35027   0.35782   0.36227   0.36480   0.36727
 Alpha virt. eigenvalues --    0.37135   0.37175   0.37328   0.37923   0.38222
 Alpha virt. eigenvalues --    0.39042   0.39356   0.40226   0.40646   0.41045
 Alpha virt. eigenvalues --    0.41416   0.41679   0.41963   0.42838   0.43126
 Alpha virt. eigenvalues --    0.43657   0.44305   0.44324   0.44929   0.45305
 Alpha virt. eigenvalues --    0.46414   0.46736   0.47404   0.47694   0.47969
 Alpha virt. eigenvalues --    0.49404   0.49614   0.50216   0.50330   0.51599
 Alpha virt. eigenvalues --    0.51872   0.52584   0.53159   0.53354   0.54355
 Alpha virt. eigenvalues --    0.54855   0.56483   0.57026   0.58429   0.58844
 Alpha virt. eigenvalues --    0.60289   0.60946   0.61740   0.63183   0.64467
 Alpha virt. eigenvalues --    0.65323   0.65614   0.66099   0.66868   0.67594
 Alpha virt. eigenvalues --    0.68426   0.69053   0.69975   0.70602   0.71072
 Alpha virt. eigenvalues --    0.72357   0.73051   0.73944   0.74913   0.76823
 Alpha virt. eigenvalues --    0.78671   0.80301   0.80974   0.84601   0.85590
 Alpha virt. eigenvalues --    0.86004   0.87585   0.88524   0.89044   0.90040
 Alpha virt. eigenvalues --    0.92145   0.92791   0.93861   0.94599   0.96258
 Alpha virt. eigenvalues --    0.97338   0.99200   0.99974   1.00722   1.01069
 Alpha virt. eigenvalues --    1.01173   1.01721   1.02522   1.03531   1.05133
 Alpha virt. eigenvalues --    1.06962   1.08037   1.08659   1.09163   1.10624
 Alpha virt. eigenvalues --    1.11123   1.12067   1.13053   1.13862   1.14677
 Alpha virt. eigenvalues --    1.16907   1.17757   1.18771   1.18938   1.19611
 Alpha virt. eigenvalues --    1.22755   1.25994   1.26391   1.27066   1.30387
 Alpha virt. eigenvalues --    1.32539   1.34570   1.36935   1.39180   1.39442
 Alpha virt. eigenvalues --    1.41914   1.46614   1.48678   1.51284   1.54896
 Alpha virt. eigenvalues --    1.55917   1.56384   1.61344   1.71938   1.74863
 Alpha virt. eigenvalues --    1.85166   1.87356   1.91123   1.97212   2.00995
 Alpha virt. eigenvalues --    2.15138   2.20308   2.21402
          Condensed to atoms (all electrons):
               1          2          3          4          5          6
     1  N    6.927679   0.265691  -0.062048   0.257931  -0.072408  -0.045639
     2  C    0.265691   5.249947   0.205793  -0.082840  -0.042658   0.370679
     3  C   -0.062048   0.205793   5.681522  -0.041395   0.167365  -0.030756
     4  C    0.257931  -0.082840  -0.041395   5.254123   0.259754   0.002792
     5  C   -0.072408  -0.042658   0.167365   0.259754   5.528257  -0.004526
     6  H   -0.045639   0.370679  -0.030756   0.002792  -0.004526   0.499218
     7  H   -0.038311   0.385764  -0.053619   0.003970   0.007179  -0.027764
     8  H   -0.036250   0.005023   0.005394   0.382317  -0.047062  -0.000132
     9  H   -0.049367   0.003221  -0.005541   0.372665  -0.034457   0.000679
    10  H    0.002045  -0.008628   0.336682   0.004694  -0.018525  -0.000649
    11  O    0.000000   0.000000   0.000000   0.000000   0.000000   0.000000
    12  O    0.000000   0.000000   0.000000   0.000000   0.000000   0.000000
    13  O    0.000000   0.000000   0.000000   0.000000   0.000000   0.000000
    14  N    0.000550  -0.000196  -0.000004  -0.000005   0.000000   0.000012
    15  N   -0.080795   0.011478   0.001596  -0.000313  -0.000054   0.000485
    16  C   -0.000512  -0.007040   0.000011   0.000428  -0.000068   0.000549
    17  C   -0.003760   0.000916   0.000054  -0.000409  -0.000024  -0.000065
    18  C    0.000057  -0.000044  -0.000001   0.000001   0.000000   0.000004
    19  C   -0.000022   0.000000   0.000000   0.000000   0.000000   0.000000
    20  C   -0.000066  -0.000005   0.000000  -0.000007   0.000000   0.000000
    21  C    0.002067   0.000252  -0.000086  -0.001443  -0.000080   0.000019
    22  C    0.207242  -0.022689   0.003061  -0.028598   0.005491  -0.003167
    23  H    0.002070   0.005467  -0.022118  -0.005782   0.332954   0.000005
    24  C   -0.035642   0.002892  -0.001709   0.000744  -0.002579  -0.000300
    25  C    0.000000   0.000000   0.000000   0.000000   0.000000   0.000000
    26  H    0.000000   0.000000   0.000000   0.000000   0.000000   0.000000
    27  H   -0.000062  -0.000003   0.000000   0.000047   0.000001   0.000000
    28  H    0.000000   0.000000   0.000000   0.000000   0.000000   0.000000
    29  C    0.000001   0.000027   0.000001   0.000000   0.000000   0.000021
    30  C    0.000063  -0.000206  -0.000005  -0.000002   0.000002   0.000123
    31  C    0.000455   0.000286  -0.000110   0.000001   0.000000   0.000029
    32  C    0.000000  -0.000019   0.000000   0.000000   0.000000  -0.000005
    33  C    0.000006  -0.000061  -0.000004   0.000001   0.000000  -0.000030
    34  C   -0.000041  -0.000656  -0.000068   0.000002  -0.000001  -0.000009
    35  F    0.000000   0.000000   0.000000   0.000000   0.000000   0.000000
    36  H   -0.000121  -0.000343   0.000006  -0.000004   0.000001  -0.000006
    37  F    0.005922  -0.000022   0.000030   0.008077   0.000949   0.000000
    38  C   -0.004037  -0.026454   0.171713  -0.039478   0.181381   0.004711
    39  H    0.000010   0.000001   0.003031   0.000872   0.002141   0.000003
    40  H    0.000011   0.000891  -0.002537  -0.000425   0.004094  -0.000002
    41  N   -0.000332   0.007795  -0.041656   0.001980  -0.001225  -0.000092
    42  H    0.002316   0.008446  -0.062969  -0.001037  -0.012577   0.000092
    43  H    0.000000   0.000000   0.000000   0.000000   0.000000   0.000000
    44  H    0.000001  -0.000001  -0.000002   0.000000   0.000000   0.000001
    45  F    0.000000   0.000000   0.000000   0.000000   0.000000   0.000000
               7          8          9         10         11         12
     1  N   -0.038311  -0.036250  -0.049367   0.002045   0.000000   0.000000
     2  C    0.385764   0.005023   0.003221  -0.008628   0.000000   0.000000
     3  C   -0.053619   0.005394  -0.005541   0.336682   0.000000   0.000000
     4  C    0.003970   0.382317   0.372665   0.004694   0.000000   0.000000
     5  C    0.007179  -0.047062  -0.034457  -0.018525   0.000000   0.000000
     6  H   -0.027764  -0.000132   0.000679  -0.000649   0.000000   0.000000
     7  H    0.498145   0.000099  -0.000152   0.000321   0.000000   0.000000
     8  H    0.000099   0.468633  -0.026396  -0.000064   0.000000   0.000000
     9  H   -0.000152  -0.026396   0.507103   0.000049   0.000000   0.000000
    10  H    0.000321  -0.000064   0.000049   0.454262   0.000000   0.000000
    11  O    0.000000   0.000000   0.000000   0.000000   7.783689  -0.006805
    12  O    0.000000   0.000000   0.000000   0.000000  -0.006805   8.084865
    13  O    0.000000   0.000000   0.000000   0.000000   0.000003  -0.083252
    14  N    0.000029   0.000000   0.000000   0.000000   0.000093   0.000003
    15  N    0.001123   0.000074  -0.000024   0.000017  -0.000125   0.000000
    16  C    0.002056   0.000044  -0.000027   0.000000  -0.001363  -0.000136
    17  C   -0.000122   0.000002  -0.000004   0.000000  -0.087913  -0.001111
    18  C    0.000016   0.000000   0.000000   0.000000   0.000971  -0.006084
    19  C    0.000000   0.000000   0.000000   0.000000  -0.069326  -0.027232
    20  C   -0.000001   0.000000   0.000000   0.000000   0.662558   0.002641
    21  C    0.000015   0.000057   0.000184   0.000000  -0.006684   0.000028
    22  C   -0.010576  -0.001658  -0.001572   0.000118  -0.000078   0.000000
    23  H   -0.000064   0.000415  -0.001319  -0.001339   0.000000   0.000000
    24  C   -0.000761  -0.000100   0.002305   0.000023  -0.000295  -0.000001
    25  C    0.000000   0.000000   0.000000   0.000000  -0.007343   0.245306
    26  H    0.000000   0.000000   0.000000   0.000000  -0.000054   0.000365
    27  H    0.000000   0.000000   0.000000   0.000000   0.011309   0.000000
    28  H    0.000000   0.000000   0.000000   0.000000   0.000381   0.245781
    29  C   -0.000079   0.000000   0.000000   0.000000   0.000000   0.000000
    30  C   -0.000477   0.000000   0.000000  -0.000002   0.000000   0.000000
    31  C   -0.000140  -0.000001   0.000000   0.000002  -0.000002   0.000000
    32  C   -0.000001   0.000000   0.000000   0.000000   0.000000   0.000000
    33  C    0.000065   0.000000   0.000000   0.000000   0.000001  -0.000001
    34  C    0.001092   0.000000   0.000000   0.000000  -0.000009   0.000008
    35  F    0.000000   0.000000   0.000000   0.000000   0.000000   0.000000
    36  H    0.000363   0.000000   0.000000   0.000000   0.000000   0.000000
    37  F   -0.000002  -0.002794  -0.002978   0.000000   0.000003   0.000000
    38  C   -0.009235  -0.008980   0.006410  -0.011993   0.000000   0.000000
    39  H    0.000000   0.000019  -0.000003   0.000319   0.000000   0.000000
    40  H   -0.000011  -0.000006   0.000001  -0.000024   0.000000   0.000000
    41  N    0.000378   0.000251  -0.000042  -0.008013   0.000000   0.000000
    42  H    0.001869   0.001327   0.000180   0.000122   0.000000   0.000000
    43  H    0.000000   0.000000   0.000000   0.000000   0.000000   0.000000
    44  H   -0.000009   0.000000   0.000000   0.000000   0.000000   0.000000
    45  F    0.000000   0.000000   0.000000   0.000000   0.000000   0.000000
              13         14         15         16         17         18
     1  N    0.000000   0.000550  -0.080795  -0.000512  -0.003760   0.000057
     2  C    0.000000  -0.000196   0.011478  -0.007040   0.000916  -0.000044
     3  C    0.000000  -0.000004   0.001596   0.000011   0.000054  -0.000001
     4  C    0.000000  -0.000005  -0.000313   0.000428  -0.000409   0.000001
     5  C    0.000000   0.000000  -0.000054  -0.000068  -0.000024   0.000000
     6  H    0.000000   0.000012   0.000485   0.000549  -0.000065   0.000004
     7  H    0.000000   0.000029   0.001123   0.002056  -0.000122   0.000016
     8  H    0.000000   0.000000   0.000074   0.000044   0.000002   0.000000
     9  H    0.000000   0.000000  -0.000024  -0.000027  -0.000004   0.000000
    10  H    0.000000   0.000000   0.000017   0.000000   0.000000   0.000000
    11  O    0.000003   0.000093  -0.000125  -0.001363  -0.087913   0.000971
    12  O   -0.083252   0.000003   0.000000  -0.000136  -0.001111  -0.006084
    13  O    7.874875   0.000736   0.000000  -0.000183  -0.000370   0.008256
    14  N    0.000736   6.835764  -0.067398   0.178678  -0.067990   0.394173
    15  N    0.000000  -0.067398   6.396013   0.471617  -0.042375  -0.008054
    16  C   -0.000183   0.178678   0.471617   5.898587   0.070724  -0.129623
    17  C   -0.000370  -0.067990  -0.042375   0.070724   5.740777   0.005860
    18  C    0.008256   0.394173  -0.008054  -0.129623   0.005860   5.559605
    19  C   -0.063471  -0.067719  -0.002337   0.007890  -0.155455   0.280205
    20  C   -0.004100  -0.007051   0.000259  -0.007777   0.129904  -0.097916
    21  C    0.000006   0.011399  -0.031894  -0.061845   0.341205   0.004871
    22  C    0.000000  -0.005777   0.495113  -0.228412  -0.074291  -0.001290
    23  H    0.000000   0.000000  -0.000002   0.000000   0.000000   0.000000
    24  C    0.000000  -0.001636  -0.033916  -0.063255  -0.019031  -0.000259
    25  C    0.586776   0.007256   0.000015   0.006123  -0.033013  -0.002980
    26  H    0.013662  -0.037684  -0.000063  -0.005322  -0.000202   0.311175
    27  H    0.000000  -0.000091  -0.000302   0.003193  -0.017309  -0.000126
    28  H    0.003240   0.000001   0.000000  -0.000001   0.000068  -0.000420
    29  C    0.000000   0.000685  -0.000251  -0.000327  -0.000011  -0.000429
    30  C    0.000000   0.007401  -0.003351  -0.005620  -0.000293   0.002016
    31  C   -0.000012   0.008419  -0.009098  -0.047980  -0.003644   0.006144
    32  C    0.000006   0.007783  -0.000011   0.002567   0.000068  -0.007657
    33  C    0.000101  -0.034534  -0.003168   0.005336   0.001448  -0.024691
    34  C    0.000305   0.134615   0.015615  -0.065472  -0.009728  -0.059368
    35  F    0.000000  -0.000001   0.000000  -0.000001   0.000000   0.000000
    36  H    0.000000  -0.008081  -0.001992   0.001880  -0.000049   0.000381
    37  F    0.000000   0.000002   0.002456   0.000270  -0.001233   0.000001
    38  C    0.000000   0.000000  -0.000349   0.000018  -0.000008   0.000000
    39  H    0.000000   0.000000   0.000000   0.000000   0.000000   0.000000
    40  H    0.000000   0.000000   0.000000   0.000000   0.000000   0.000000
    41  N    0.000000   0.000000   0.000000   0.000000   0.000000   0.000000
    42  H    0.000000   0.000000  -0.000007   0.000011   0.000001   0.000000
    43  H    0.000000  -0.000111  -0.000001  -0.000011   0.000000   0.000035
    44  H    0.000000  -0.000056   0.000035  -0.000049   0.000000   0.000001
    45  F    0.000002   0.000698   0.000051   0.002584  -0.000291   0.005847
              19         20         21         22         23         24
     1  N   -0.000022  -0.000066   0.002067   0.207242   0.002070  -0.035642
     2  C    0.000000  -0.000005   0.000252  -0.022689   0.005467   0.002892
     3  C    0.000000   0.000000  -0.000086   0.003061  -0.022118  -0.001709
     4  C    0.000000  -0.000007  -0.001443  -0.028598  -0.005782   0.000744
     5  C    0.000000   0.000000  -0.000080   0.005491   0.332954  -0.002579
     6  H    0.000000   0.000000   0.000019  -0.003167   0.000005  -0.000300
     7  H    0.000000  -0.000001   0.000015  -0.010576  -0.000064  -0.000761
     8  H    0.000000   0.000000   0.000057  -0.001658   0.000415  -0.000100
     9  H    0.000000   0.000000   0.000184  -0.001572  -0.001319   0.002305
    10  H    0.000000   0.000000   0.000000   0.000118  -0.001339   0.000023
    11  O   -0.069326   0.662558  -0.006684  -0.000078   0.000000  -0.000295
    12  O   -0.027232   0.002641   0.000028   0.000000   0.000000  -0.000001
    13  O   -0.063471  -0.004100   0.000006   0.000000   0.000000   0.000000
    14  N   -0.067719  -0.007051   0.011399  -0.005777   0.000000  -0.001636
    15  N   -0.002337   0.000259  -0.031894   0.495113  -0.000002  -0.033916
    16  C    0.007890  -0.007777  -0.061845  -0.228412   0.000000  -0.063255
    17  C   -0.155455   0.129904   0.341205  -0.074291   0.000000  -0.019031
    18  C    0.280205  -0.097916   0.004871  -0.001290   0.000000  -0.000259
    19  C    5.970244   0.016235  -0.026529  -0.000920   0.000000  -0.001828
    20  C    0.016235   5.278385  -0.070050  -0.004124   0.000000  -0.023979
    21  C   -0.026529  -0.070050   5.622953  -0.092765   0.000001   0.420670
    22  C   -0.000920  -0.004124  -0.092765   5.423397  -0.000178   0.273236
    23  H    0.000000   0.000000   0.000001  -0.000178   0.462037   0.000127
    24  C   -0.001828  -0.023979   0.420670   0.273236   0.000127   5.008343
    25  C    0.062653  -0.050357  -0.001056  -0.000013   0.000000  -0.000080
    26  H   -0.009813   0.004306   0.000096  -0.000020   0.000000   0.000002
    27  H    0.002257   0.004235   0.309681   0.000732   0.000000  -0.033338
    28  H    0.005170   0.001737  -0.000001   0.000000   0.000000   0.000000
    29  C   -0.000028   0.000000   0.000000  -0.000038   0.000000  -0.000001
    30  C    0.000093  -0.000010   0.000002  -0.000171   0.000000  -0.000026
    31  C    0.001702   0.000057  -0.000173   0.004624   0.000000  -0.000080
    32  C   -0.000693  -0.000006   0.000000   0.000024   0.000000   0.000002
    33  C   -0.007335  -0.000193   0.000005   0.000118   0.000000   0.000070
    34  C    0.001989  -0.000061   0.000246  -0.001682   0.000000  -0.000121
    35  F    0.000000   0.000000   0.000000   0.000000   0.000000   0.000000
    36  H   -0.000060  -0.000013   0.000034  -0.000523   0.000000  -0.000058
    37  F   -0.000007  -0.000133  -0.047356  -0.050559   0.000002   0.265689
    38  C    0.000000   0.000000   0.000022   0.000025  -0.016351  -0.000248
    39  H    0.000000   0.000000   0.000000   0.000004   0.000519   0.000000
    40  H    0.000000   0.000000   0.000000   0.000000   0.000354   0.000000
    41  N    0.000000   0.000000   0.000000  -0.000022  -0.004332   0.000004
    42  H    0.000000   0.000000   0.000010   0.001939   0.000671   0.000142
    43  H    0.000002   0.000000   0.000000   0.000000   0.000000   0.000000
    44  H    0.000000   0.000000   0.000000   0.000006   0.000000   0.000000
    45  F    0.001778   0.000137  -0.000004   0.000013   0.000000   0.000000
              25         26         27         28         29         30
     1  N    0.000000   0.000000  -0.000062   0.000000   0.000001   0.000063
     2  C    0.000000   0.000000  -0.000003   0.000000   0.000027  -0.000206
     3  C    0.000000   0.000000   0.000000   0.000000   0.000001  -0.000005
     4  C    0.000000   0.000000   0.000047   0.000000   0.000000  -0.000002
     5  C    0.000000   0.000000   0.000001   0.000000   0.000000   0.000002
     6  H    0.000000   0.000000   0.000000   0.000000   0.000021   0.000123
     7  H    0.000000   0.000000   0.000000   0.000000  -0.000079  -0.000477
     8  H    0.000000   0.000000   0.000000   0.000000   0.000000   0.000000
     9  H    0.000000   0.000000   0.000000   0.000000   0.000000   0.000000
    10  H    0.000000   0.000000   0.000000   0.000000   0.000000  -0.000002
    11  O   -0.007343  -0.000054   0.011309   0.000381   0.000000   0.000000
    12  O    0.245306   0.000365   0.000000   0.245781   0.000000   0.000000
    13  O    0.586776   0.013662   0.000000   0.003240   0.000000   0.000000
    14  N    0.007256  -0.037684  -0.000091   0.000001   0.000685   0.007401
    15  N    0.000015  -0.000063  -0.000302   0.000000  -0.000251  -0.003351
    16  C    0.006123  -0.005322   0.003193  -0.000001  -0.000327  -0.005620
    17  C   -0.033013  -0.000202  -0.017309   0.000068  -0.000011  -0.000293
    18  C   -0.002980   0.311175  -0.000126  -0.000420  -0.000429   0.002016
    19  C    0.062653  -0.009813   0.002257   0.005170  -0.000028   0.000093
    20  C   -0.050357   0.004306   0.004235   0.001737   0.000000  -0.000010
    21  C   -0.001056   0.000096   0.309681  -0.000001   0.000000   0.000002
    22  C   -0.000013  -0.000020   0.000732   0.000000  -0.000038  -0.000171
    23  H    0.000000   0.000000   0.000000   0.000000   0.000000   0.000000
    24  C   -0.000080   0.000002  -0.033338   0.000000  -0.000001  -0.000026
    25  C    5.022842  -0.010145  -0.000012  -0.028634   0.000000  -0.000002
    26  H   -0.010145   0.432872   0.000000   0.000000  -0.000035   0.000057
    27  H   -0.000012   0.000000   0.416303   0.000000   0.000000   0.000000
    28  H   -0.028634   0.000000   0.000000   0.366005   0.000000   0.000000
    29  C    0.000000  -0.000035   0.000000   0.000000   4.553608   0.436623
    30  C   -0.000002   0.000057   0.000000   0.000000   0.436623   5.441149
    31  C   -0.000130   0.000746   0.000000   0.000000  -0.046076   0.522643
    32  C    0.000021  -0.000406   0.000000   0.000000   0.430995  -0.137951
    33  C    0.000400  -0.000290   0.000000   0.000000  -0.012997  -0.060349
    34  C   -0.000363   0.005008   0.000001   0.000000  -0.066589  -0.051919
    35  F    0.000000   0.000000   0.000000   0.000000   0.302464  -0.045003
    36  H   -0.000001   0.000018   0.000000   0.000000   0.000087  -0.036917
    37  F    0.000000   0.000000   0.001084   0.000000   0.000000   0.000000
    38  C    0.000000   0.000000   0.000000   0.000000   0.000000   0.000008
    39  H    0.000000   0.000000   0.000000   0.000000   0.000000   0.000000
    40  H    0.000000   0.000000   0.000000   0.000000   0.000000   0.000000
    41  N    0.000000   0.000000   0.000000   0.000000   0.000000   0.000000
    42  H    0.000000   0.000000   0.000000   0.000000   0.000000  -0.000001
    43  H    0.000000   0.000007   0.000000   0.000000  -0.013197   0.005285
    44  H    0.000000   0.000000   0.000000   0.000000  -0.013810   0.321861
    45  F    0.000089  -0.001692   0.000000   0.000000  -0.000303  -0.000430
              31         32         33         34         35         36
     1  N    0.000455   0.000000   0.000006  -0.000041   0.000000  -0.000121
     2  C    0.000286  -0.000019  -0.000061  -0.000656   0.000000  -0.000343
     3  C   -0.000110   0.000000  -0.000004  -0.000068   0.000000   0.000006
     4  C    0.000001   0.000000   0.000001   0.000002   0.000000  -0.000004
     5  C    0.000000   0.000000   0.000000  -0.000001   0.000000   0.000001
     6  H    0.000029  -0.000005  -0.000030  -0.000009   0.000000  -0.000006
     7  H   -0.000140  -0.000001   0.000065   0.001092   0.000000   0.000363
     8  H   -0.000001   0.000000   0.000000   0.000000   0.000000   0.000000
     9  H    0.000000   0.000000   0.000000   0.000000   0.000000   0.000000
    10  H    0.000002   0.000000   0.000000   0.000000   0.000000   0.000000
    11  O   -0.000002   0.000000   0.000001  -0.000009   0.000000   0.000000
    12  O    0.000000   0.000000  -0.000001   0.000008   0.000000   0.000000
    13  O   -0.000012   0.000006   0.000101   0.000305   0.000000   0.000000
    14  N    0.008419   0.007783  -0.034534   0.134615  -0.000001  -0.008081
    15  N   -0.009098  -0.000011  -0.003168   0.015615   0.000000  -0.001992
    16  C   -0.047980   0.002567   0.005336  -0.065472  -0.000001   0.001880
    17  C   -0.003644   0.000068   0.001448  -0.009728   0.000000  -0.000049
    18  C    0.006144  -0.007657  -0.024691  -0.059368   0.000000   0.000381
    19  C    0.001702  -0.000693  -0.007335   0.001989   0.000000  -0.000060
    20  C    0.000057  -0.000006  -0.000193  -0.000061   0.000000  -0.000013
    21  C   -0.000173   0.000000   0.000005   0.000246   0.000000   0.000034
    22  C    0.004624   0.000024   0.000118  -0.001682   0.000000  -0.000523
    23  H    0.000000   0.000000   0.000000   0.000000   0.000000   0.000000
    24  C   -0.000080   0.000002   0.000070  -0.000121   0.000000  -0.000058
    25  C   -0.000130   0.000021   0.000400  -0.000363   0.000000  -0.000001
    26  H    0.000746  -0.000406  -0.000290   0.005008   0.000000   0.000018
    27  H    0.000000   0.000000   0.000000   0.000001   0.000000   0.000000
    28  H    0.000000   0.000000   0.000000   0.000000   0.000000   0.000000
    29  C   -0.046076   0.430995  -0.012997  -0.066589   0.302464   0.000087
    30  C    0.522643  -0.137951  -0.060349  -0.051919  -0.045003  -0.036917
    31  C    5.201619  -0.052928  -0.080212   0.422028   0.000621   0.328471
[...]
    29  C   -0.000013   0.000001   0.000000  -0.000028   0.000000  -0.000001
    30  C    0.000078  -0.000008   0.000001  -0.000106   0.000000  -0.000015
    31  C    0.001556   0.000099  -0.000219   0.003681   0.000000  -0.000004
    32  C   -0.000369   0.000000   0.000000   0.000066   0.000000   0.000003
    33  C   -0.004246   0.000118  -0.000016   0.000409   0.000000   0.000059
    34  C    0.000774  -0.000462   0.000063  -0.001115   0.000000  -0.000231
    35  F    0.000000   0.000000   0.000000   0.000000   0.000000   0.000000
    36  H   -0.000048  -0.000012   0.000030  -0.000338   0.000000  -0.000045
    37  F   -0.000006  -0.000137  -0.050018  -0.049368   0.000001   0.266959
    38  C    0.000000   0.000000   0.000025  -0.000611  -0.011573   0.000195
    39  H    0.000000   0.000000   0.000000   0.000000   0.000333   0.000000
    40  H    0.000000   0.000000   0.000000   0.000000   0.000158   0.000000
    41  N    0.000000   0.000000   0.000000  -0.000023  -0.004726   0.000000
    42  H    0.000000   0.000000   0.000002   0.002081   0.000352  -0.000084
    43  H    0.000001   0.000000   0.000000   0.000000   0.000000   0.000000
    44  H    0.000000   0.000000   0.000000   0.000002   0.000000   0.000000
    45  F    0.001068   0.000103  -0.000008   0.000023   0.000000   0.000000
              25         26         27         28         29         30
     1  N    0.000000   0.000000  -0.000061   0.000000   0.000001   0.000053
     2  C    0.000000   0.000000  -0.000003   0.000000   0.000025  -0.000189
     3  C    0.000000   0.000000   0.000000   0.000000   0.000001  -0.000027
     4  C    0.000000   0.000000   0.000046   0.000000   0.000000  -0.000001
     5  C    0.000000   0.000000   0.000001   0.000000   0.000000   0.000001
     6  H    0.000000   0.000000   0.000000   0.000000   0.000032   0.000151
     7  H    0.000000   0.000000   0.000000   0.000000  -0.000057  -0.000339
     8  H    0.000000   0.000000   0.000000   0.000000   0.000000   0.000000
     9  H    0.000000   0.000000   0.000000   0.000000   0.000000   0.000000
    10  H    0.000000   0.000000   0.000000   0.000000   0.000000  -0.000001
    11  O   -0.006956  -0.000052   0.009600   0.000275   0.000000   0.000000
    12  O    0.252305   0.000346   0.000000   0.250249   0.000000   0.000000
    13  O    0.588175   0.011953   0.000000   0.002890   0.000000   0.000000
    14  N    0.007153  -0.037686  -0.000087   0.000001   0.000214   0.005529
    15  N    0.000014  -0.000072  -0.000306   0.000000  -0.000133  -0.001814
    16  C    0.006218  -0.005827   0.003276   0.000000  -0.000381  -0.003279
    17  C   -0.031430   0.000072  -0.016224   0.000050  -0.000014  -0.000151
    18  C   -0.010496   0.311146  -0.000125  -0.000325  -0.000344   0.001704
    19  C    0.068057  -0.008143   0.001961   0.005047  -0.000013   0.000078
    20  C   -0.047708   0.004021   0.003542   0.001345   0.000001  -0.000008
    21  C   -0.000982   0.000102   0.312283  -0.000001   0.000000   0.000001
    22  C   -0.000012  -0.000021   0.000680   0.000000  -0.000028  -0.000106
    23  H    0.000000   0.000000   0.000000   0.000000   0.000000   0.000000
    24  C   -0.000072   0.000002  -0.033883   0.000000  -0.000001  -0.000015
    25  C    5.011391  -0.009479  -0.000011  -0.028795   0.000000  -0.000002
    26  H   -0.009479   0.433756   0.000000  -0.000001  -0.000011  -0.000006
    27  H   -0.000011   0.000000   0.418339   0.000000   0.000000   0.000000
    28  H   -0.028795  -0.000001   0.000000   0.359860   0.000000   0.000000
    29  C    0.000000  -0.000011   0.000000   0.000000   4.549083   0.429673
    30  C   -0.000002  -0.000006   0.000000   0.000000   0.429673   5.445516
    31  C   -0.000133   0.000349   0.000000   0.000000  -0.042096   0.523768
    32  C    0.000013   0.000213   0.000000   0.000000   0.427801  -0.139719
    33  C    0.000201   0.000834   0.000000   0.000000  -0.016088  -0.057731
    34  C   -0.000299   0.006548   0.000004   0.000000  -0.066632  -0.049736
    35  F    0.000000   0.000000   0.000000   0.000000   0.298696  -0.044822
    36  H   -0.000002   0.000060   0.000000   0.000000   0.000130  -0.035603
    37  F    0.000000   0.000000   0.000760   0.000000   0.000000   0.000000
    38  C    0.000000   0.000000   0.000000   0.000000   0.000000   0.000003
    39  H    0.000000   0.000000   0.000000   0.000000   0.000000   0.000000
    40  H    0.000000   0.000000   0.000000   0.000000   0.000000   0.000000
    41  N    0.000000   0.000000   0.000000   0.000000   0.000000   0.000000
    42  H    0.000000   0.000000   0.000000   0.000000   0.000000   0.000000
    43  H    0.000000   0.000004   0.000000   0.000000  -0.012180   0.004920
    44  H    0.000000   0.000000   0.000000   0.000000  -0.012221   0.320878
    45  F    0.000018  -0.001909   0.000000   0.000000  -0.000126  -0.000404
              31         32         33         34         35         36
     1  N    0.000164   0.000000   0.000021   0.000049   0.000000  -0.000022
     2  C    0.000261  -0.000033  -0.000080  -0.000766   0.000000  -0.000226
     3  C   -0.000048  -0.000001  -0.000004  -0.000065   0.000000   0.000001
     4  C   -0.000001   0.000000   0.000000   0.000002   0.000000  -0.000001
     5  C    0.000001   0.000000   0.000000  -0.000001   0.000000   0.000000
     6  H   -0.000024  -0.000006  -0.000063   0.000078   0.000000   0.000001
     7  H    0.000059  -0.000004   0.000069   0.000841   0.000000   0.000141
     8  H    0.000000   0.000000   0.000000   0.000000   0.000000   0.000000
     9  H    0.000000   0.000000   0.000000   0.000000   0.000000   0.000000
    10  H    0.000000   0.000000   0.000000   0.000000   0.000000   0.000000
    11  O   -0.000002   0.000000   0.000000  -0.000010   0.000000   0.000000
    12  O    0.000000   0.000000   0.000000   0.000007   0.000000   0.000000
    13  O   -0.000018   0.000004   0.000083   0.000276   0.000000   0.000000
    14  N   -0.008518   0.006532  -0.038830   0.149437  -0.000001  -0.007402
    15  N   -0.001651   0.000028  -0.005259   0.008466   0.000000  -0.003425
    16  C   -0.040001   0.001221  -0.002238  -0.069946  -0.000001   0.000757
    17  C   -0.002375  -0.000001   0.000097  -0.008417   0.000000  -0.000170
    18  C    0.004901  -0.005979  -0.027146  -0.068484   0.000000   0.000519
    19  C    0.001556  -0.000369  -0.004246   0.000774   0.000000  -0.000048
    20  C    0.000099   0.000000   0.000118  -0.000462   0.000000  -0.000012
    21  C   -0.000219   0.000000  -0.000016   0.000063   0.000000   0.000030
    22  C    0.003681   0.000066   0.000409  -0.001115   0.000000  -0.000338
    23  H    0.000000   0.000000   0.000000   0.000000   0.000000   0.000000
    24  C   -0.000004   0.000003   0.000059  -0.000231   0.000000  -0.000045
    25  C   -0.000133   0.000013   0.000201  -0.000299   0.000000  -0.000002
    26  H    0.000349   0.000213   0.000834   0.006548   0.000000   0.000060
    27  H    0.000000   0.000000   0.000000   0.000004   0.000000   0.000000
    28  H    0.000000   0.000000   0.000000   0.000000   0.000000   0.000000
    29  C   -0.042096   0.427801  -0.016088  -0.066632   0.298696   0.000130
    30  C    0.523768  -0.139719  -0.057731  -0.049736  -0.044822  -0.035603
    31  C    5.205204  -0.051530  -0.080993   0.414585   0.001119   0.330929
    32  C   -0.051530   5.729058   0.441883  -0.100540  -0.049486  -0.000093
    33  C   -0.080993   0.441883   4.854988   0.331420  -0.000162   0.004370
    34  C    0.414585  -0.100540   0.331420   5.202509  -0.001066  -0.007746
    35  F    0.001119  -0.049486  -0.000162  -0.001066   9.047485  -0.000036
    36  H    0.330929  -0.000093   0.004370  -0.007746  -0.000036   0.466353
    37  F    0.000000   0.000000   0.000000   0.000000   0.000000   0.000000
    38  C   -0.000008   0.000000   0.000000  -0.000001   0.000000   0.000000
    39  H    0.000000   0.000000   0.000000   0.000000   0.000000   0.000000
    40  H    0.000000   0.000000   0.000000   0.000000   0.000000   0.000000
    41  N    0.000000   0.000000   0.000000   0.000000   0.000000   0.000000
    42  H    0.000002   0.000000   0.000000   0.000000   0.000000   0.000000
    43  H    0.001325   0.322807  -0.028275  -0.001652  -0.001062   0.000005
    44  H   -0.028629   0.006138   0.000724  -0.001014  -0.000172  -0.002392
    45  F    0.002704  -0.060410   0.300914  -0.042472  -0.000003  -0.000033
              37         38         39         40         41         42
     1  N    0.005332  -0.006260   0.000002   0.000001   0.000033   0.002518
     2  C   -0.000058  -0.023178  -0.000219   0.000819   0.001033   0.005331
     3  C    0.000036   0.165131   0.005214  -0.007544  -0.020099  -0.044595
     4  C    0.009999  -0.022156   0.000834  -0.000235   0.000948   0.004555
     5  C    0.000728   0.166310  -0.007519   0.005256  -0.020017  -0.044548
     6  H   -0.000001   0.005475   0.000002  -0.000004  -0.000067   0.000205
     7  H   -0.000001  -0.009026  -0.000004  -0.000005   0.000263   0.001691
     8  H   -0.002611  -0.008849  -0.000004  -0.000004   0.000254   0.001688
     9  H   -0.003003   0.005737  -0.000005   0.000002  -0.000071   0.000197
    10  H    0.000000  -0.011936   0.000141   0.000318  -0.004772   0.000372
    11  O    0.000002   0.000000   0.000000   0.000000   0.000000   0.000000
    12  O    0.000000   0.000000   0.000000   0.000000   0.000000   0.000000
    13  O    0.000000   0.000000   0.000000   0.000000   0.000000   0.000000
    14  N    0.000002   0.000000   0.000000   0.000000   0.000000   0.000000
    15  N    0.002437  -0.000263   0.000000   0.000000   0.000000   0.000004
    16  C    0.000261  -0.000017   0.000000   0.000000   0.000000   0.000017
    17  C   -0.000885  -0.000001   0.000000   0.000000   0.000000   0.000000
    18  C    0.000001   0.000000   0.000000   0.000000   0.000000   0.000000
    19  C   -0.000006   0.000000   0.000000   0.000000   0.000000   0.000000
    20  C   -0.000137   0.000000   0.000000   0.000000   0.000000   0.000000
    21  C   -0.050018   0.000025   0.000000   0.000000   0.000000   0.000002
    22  C   -0.049368  -0.000611   0.000000   0.000000  -0.000023   0.002081
    23  H    0.000001  -0.011573   0.000333   0.000158  -0.004726   0.000352
    24  C    0.266959   0.000195   0.000000   0.000000   0.000000  -0.000084
    25  C    0.000000   0.000000   0.000000   0.000000   0.000000   0.000000
    26  H    0.000000   0.000000   0.000000   0.000000   0.000000   0.000000
    27  H    0.000760   0.000000   0.000000   0.000000   0.000000   0.000000
    28  H    0.000000   0.000000   0.000000   0.000000   0.000000   0.000000
    29  C    0.000000   0.000000   0.000000   0.000000   0.000000   0.000000
    30  C    0.000000   0.000003   0.000000   0.000000   0.000000   0.000000
    31  C    0.000000  -0.000008   0.000000   0.000000   0.000000   0.000002
    32  C    0.000000   0.000000   0.000000   0.000000   0.000000   0.000000
    33  C    0.000000   0.000000   0.000000   0.000000   0.000000   0.000000
    34  C    0.000000  -0.000001   0.000000   0.000000   0.000000   0.000000
    35  F    0.000000   0.000000   0.000000   0.000000   0.000000   0.000000
    36  H    0.000000   0.000000   0.000000   0.000000   0.000000   0.000000
    37  F    9.075578  -0.000031   0.000000   0.000000   0.000000   0.000003
    38  C   -0.000031   5.268193  -0.035612  -0.035933   0.270488   0.385977
    39  H    0.000000  -0.035612   0.430640  -0.034552   0.337769   0.000979
    40  H    0.000000  -0.035933  -0.034552   0.432417   0.337668   0.000944
    41  N    0.000000   0.270488   0.337769   0.337668   6.879722  -0.062268
    42  H    0.000003   0.385977   0.000979   0.000944  -0.062268   0.535867
    43  H    0.000000   0.000000   0.000000   0.000000   0.000000   0.000000
    44  H    0.000000   0.000000   0.000000   0.000000   0.000000   0.000000
    45  F    0.000000   0.000000   0.000000   0.000000   0.000000   0.000000
              43         44         45
     1  N    0.000000   0.000000   0.000000
     2  C    0.000000  -0.000003   0.000001
     3  C    0.000000  -0.000001   0.000000
     4  C    0.000000   0.000000   0.000000
     5  C    0.000000   0.000000   0.000000
     6  H    0.000000   0.000002   0.000000
     7  H    0.000000  -0.000007   0.000000
     8  H    0.000000   0.000000   0.000000
     9  H    0.000000   0.000000   0.000000
    10  H    0.000000   0.000000   0.000000
    11  O    0.000000   0.000000   0.000000
    12  O    0.000000   0.000000   0.000000
    13  O    0.000000   0.000000   0.000000
    14  N   -0.000112  -0.000076   0.000172
    15  N   -0.000001   0.000029   0.000047
    16  C   -0.000005  -0.000033   0.004285
    17  C    0.000000   0.000000  -0.000305
    18  C    0.000019   0.000003   0.006592
    19  C    0.000001   0.000000   0.001068
    20  C    0.000000   0.000000   0.000103
    21  C    0.000000   0.000000  -0.000008
    22  C    0.000000   0.000002   0.000023
    23  H    0.000000   0.000000   0.000000
    24  C    0.000000   0.000000   0.000000
    25  C    0.000000   0.000000   0.000018
    26  H    0.000004   0.000000  -0.001909
    27  H    0.000000   0.000000   0.000000
    28  H    0.000000   0.000000   0.000000
    29  C   -0.012180  -0.012221  -0.000126
    30  C    0.004920   0.320878  -0.000404
    31  C    0.001325  -0.028629   0.002704
    32  C    0.322807   0.006138  -0.060410
    33  C   -0.028275   0.000724   0.300914
    34  C   -0.001652  -0.001014  -0.042472
    35  F   -0.001062  -0.000172  -0.000003
    36  H    0.000005  -0.002392  -0.000033
    37  F    0.000000   0.000000   0.000000
    38  C    0.000000   0.000000   0.000000
    39  H    0.000000   0.000000   0.000000
    40  H    0.000000   0.000000   0.000000
    41  N    0.000000   0.000000   0.000000
    42  H    0.000000   0.000000   0.000000
    43  H    0.428548  -0.000074  -0.001397
    44  H   -0.000074   0.457319   0.000000
    45  F   -0.001397   0.000000   9.022911
 Mulliken charges:
               1
     1  N   -0.231493
     2  C   -0.343031
     3  C   -0.232795
     4  C   -0.352123
     5  C   -0.227506
     6  H    0.239750
     7  H    0.231291
     8  H    0.246011
     9  H    0.235634
    10  H    0.264884
    11  O   -0.285155
    12  O   -0.452812
    13  O   -0.344663
    14  N   -0.282781
    15  N   -0.103287
    16  C   -0.037098
    17  C    0.236427
    18  C   -0.249258
    19  C    0.094028
    20  C    0.154592
    21  C   -0.365038
    22  C    0.117107
    23  H    0.266113
    24  C    0.244213
    25  C    0.202833
    26  H    0.293799
    27  H    0.300209
    28  H    0.409405
    29  C    0.444667
    30  C   -0.398322
    31  C   -0.234457
    32  C   -0.527597
    33  C    0.324940
    34  C    0.305599
    35  F   -0.250487
    36  H    0.254299
    37  F   -0.255981
    38  C   -0.102078
    39  H    0.302001
    40  H    0.300695
    41  N   -0.716134
    42  H    0.208710
    43  H    0.287129
    44  H    0.259527
    45  F   -0.231769
 Sum of Mulliken charges =   0.00000
 Mulliken charges with hydrogens summed into heavy atoms:
               1
     1  N   -0.231493
     2  C    0.128011
     3  C    0.032090
     4  C    0.129522
     5  C    0.038608
    11  O   -0.285155
    12  O   -0.043408
    13  O   -0.344663
    14  N   -0.282781
    15  N   -0.103287
    16  C   -0.037098
    17  C    0.236427
    18  C    0.044541
    19  C    0.094028
    20  C    0.154592
    21  C   -0.064829
    22  C    0.117107
    24  C    0.244213
    25  C    0.202833
    29  C    0.444667
    30  C   -0.138795
    31  C    0.019843
    32  C   -0.240468
    33  C    0.324940
    34  C    0.305599
    35  F   -0.250487
    37  F   -0.255981
    38  C    0.106632
    41  N   -0.113438
    45  F   -0.231769
 Electronic spatial extent (au):  <R**2>=          13714.4209
 Charge=              0.0000 electrons
 Dipole moment (field-independent basis, Debye):
    X=              7.4336    Y=              3.2936    Z=             -1.5061  Tot=              8.2689
 Quadrupole moment (field-independent basis, Debye-Ang):
   XX=           -162.7170   YY=           -188.7952   ZZ=           -163.5481
   XY=             -9.0423   XZ=             -7.8211   YZ=             -1.6829
 Traceless Quadrupole moment (field-independent basis, Debye-Ang):
   XX=              8.9697   YY=            -17.1084   ZZ=              8.1387
   XY=             -9.0423   XZ=             -7.8211   YZ=             -1.6829
 Octapole moment (field-independent basis, Debye-Ang**2):
  XXX=            145.5232  YYY=             30.5502  ZZZ=              0.3241  XYY=             40.6311
  XXY=            -32.9103  XXZ=            -31.9494  XZZ=             24.4142  YZZ=             14.1782
  YYZ=             11.8897  XYZ=            -14.7565
 Hexadecapole moment (field-independent basis, Debye-Ang**3):
 XXXX=          -9594.4639 YYYY=          -6530.9616 ZZZZ=           -602.2151 XXXY=            262.9081
 XXXZ=           -491.4971 YYYX=           -291.4567 YYYZ=             78.6490 ZZZX=            -38.0945
 ZZZY=              0.6465 XXYY=          -2812.0663 XXZZ=          -1825.9884 YYZZ=           -983.0930
 XXYZ=              4.2378 YYXZ=            -63.8827 ZZXY=             18.9664
 N-N= 2.871029227538D+03 E-N=-9.286579477737D+03  KE= 1.506982945164D+03
 1\1\GINC-NODE043\FOpt\RM06\LANL2DZ\C20H15F3N4O3\SUPERCOMPUTO1\21-Jul-2
 020\0\\#opt M06/lanl2dz integral=ultrafine geom=connectivity\\Title Ca
 rd Required\\0,1\N,2.8186055565,-0.9245527437,0.3883896264\C,3.1433881
 371,0.520507095,0.3846141521\C,4.6530138347,0.5651969109,0.4458359725\
 C,3.9836888344,-1.7937289465,0.685309757\C,5.1682246657,-0.8535831047,
 0.6281681917\H,2.6784245089,1.0190574484,1.2454717564\H,2.7257636363,0
 .9851809795,-0.5181176305\H,4.051390217,-2.6027188019,-0.04927089\H,3.
 8871117797,-2.2494139239,1.6787353818\H,5.1415553228,1.3948048791,0.94
 09976306\O,-2.9850322663,-3.5557186473,-0.2042883254\O,-5.5254368838,-
 2.4365630217,-0.2521612049\O,-5.6600874357,-0.2130468028,-0.7082963056
 \N,-1.6212201652,0.3647378071,-0.1951125901\N,0.5914359045,-0.36200143
 47,0.0955439462\C,-0.7009677776,-0.6937045124,-0.0409110869\C,-1.19166
 62073,-2.0101564475,-0.0317904673\C,-2.9571768372,0.0867161883,-0.3105
 359244\C,-3.493876354,-1.1789602153,-0.3070310598\C,-2.620899809,-2.35
 74190695,-0.180267815\C,-0.2266087531,-3.0278140145,0.1349625951\C,1.5
 279672908,-1.329180256,0.2555681106\H,6.0302032989,-1.0505693626,1.252
 8919344\C,1.0955170038,-2.694186362,0.274819169\C,-4.9625843993,-1.211
 7348669,-0.4494505406\H,-3.6223213597,0.9396892604,-0.4201409023\H,-0.
 5545297379,-4.0634921119,0.1491097228\H,-6.5001645391,-2.377306511,-0.
 3613633761\C,-0.3419776447,4.3697417171,-0.0961461307\C,0.1007399599,3
 .5586743892,-1.1417670339\C,-0.3275104135,2.2293392744,-1.1739284573\C
 ,-1.1831676663,3.9176801794,0.9155191975\C,-1.5768262292,2.5847909346,
 0.8511336515\C,-1.1740396179,1.7268174672,-0.1780541591\F,0.0740149712
 ,5.6854538142,-0.0597970669\H,-0.0038569526,1.5624437216,-1.9656764867
 \F,2.0296676692,-3.7111374531,0.4387631004\C,5.4071072889,-0.122000867
 9,-0.6874314789\H,7.4318412871,-0.3705032215,-1.1784453888\H,6.8573994
 961,1.2247054501,-1.3856120698\N,6.7391495965,0.3256969118,-0.93883616
 55\H,4.78637028,-0.4550089972,-1.5291777693\H,-1.5117650821,4.56526877
 34,1.7195626255\H,0.7532301081,3.9694287801,-1.903154672\F,-2.39493751
 67,2.0929447147,1.845587476\\Version=ES64L-G09RevD.01\State=1-A\HF=-15
 14.271117\RMSD=5.756e-09\RMSF=3.606e-06\Dipole=2.8692646,1.429739,-0.5
 537307\Quadrupole=7.4118652,-13.3048285,5.8929633,-5.7776101,-5.725750
 9,-1.5826165\PG=C01 [X(C20H15F3N4O3)]\\@


 EVERYTHING'S GOT A MORAL, IF ONLY YOU CAN FIND IT.

                                    -- LEWIS CARROL, ALICE IN WONDERLAND
 Job cpu time:       0 days  7 hours 38 minutes  9.9 seconds.
 File lengths (MBytes):  RWF=     59 Int=      0 D2E=      0 Chk=      9 Scr=      1
 Normal termination of Gaussian 09 at Tue Jul 21 15:27:22 2020.
