 Entering Gaussian System, Link 0=g09
 Input=cinoxacino.gjf
 Output=cinoxacino.log
 Initial command:
 /usr/local/cluster_programs/g09/l1.exe "/tmp/scratch/63988.prometeo/Gau-11278.inp" -scrdir="/tmp/scratch/63988.prometeo/"
 Entering Link 1 = /usr/local/cluster_programs/g09/l1.exe PID=     11279.
  
 Copyright (c) 1988,1990,1992,1993,1995,1998,2003,2009,2013,
            Gaussian, Inc.  All Rights Reserved.
  
 This is part of the Gaussian(R) 09 program.  It is based on
 the Gaussian(R) 03 system (copyright 2003, Gaussian, Inc.),
 the Gaussian(R) 98 system (copyright 1998, Gaussian, Inc.),
 the Gaussian(R) 94 system (copyright 1995, Gaussian, Inc.),
 the Gaussian 92(TM) system (copyright 1992, Gaussian, Inc.),
 the Gaussian 90(TM) system (copyright 1990, Gaussian, Inc.),
 the Gaussian 88(TM) system (copyright 1988, Gaussian, Inc.),
 the Gaussian 86(TM) system (copyright 1986, Carnegie Mellon
 University), and the Gaussian 82(TM) system (copyright 1983,
 Carnegie Mellon University). Gaussian is a federally registered
 trademark of Gaussian, Inc.
  
 This software contains proprietary and confidential information,
 including trade secrets, belonging to Gaussian, Inc.
  
 This software is provided under written license and may be
 used, copied, transmitted, or stored only in accord with that
 written license.
  
 The following legend is applicable only to US Government
 contracts under FAR:
  
                    RESTRICTED RIGHTS LEGEND
  
 Use, reproduction and disclosure by the US Government is
 subject to restrictions as set forth in subparagraphs (a)
 and (c) of the Commercial Computer Software - Restricted
 Rights clause in FAR 52.227-19.
  
 Gaussian, Inc.
 340 Quinnipiac St., Bldg. 40, Wallingford CT 06492
  
  
 ---------------------------------------------------------------
 Warning -- This program may not be used in any manner that
 competes with the business of Gaussian, Inc. or will provide
 assistance to any competitor of Gaussian, Inc.  The licensee
 of this program is prohibited from giving any competitor of
 Gaussian, Inc. access to this program.  By using this program,
 the user acknowledges that Gaussian, Inc. is engaged in the
 business of creating and licensing software in the field of
 computational chemistry and represents and warrants to the
 licensee that it is not a competitor of Gaussian, Inc. and that
 it will not use this program in any manner prohibited above.
 ---------------------------------------------------------------
  

 Cite this work as:
 Gaussian 09, Revision D.01,
 M. J. Frisch, G. W. Trucks, H. B. Schlegel, G. E. Scuseria, 
 M. A. Robb, J. R. Cheeseman, G. Scalmani, V. Barone, B. Mennucci, 
 G. A. Petersson, H. Nakatsuji, M. Caricato, X. Li, H. P. Hratchian, 
 A. F. Izmaylov, J. Bloino, G. Zheng, J. L. Sonnenberg, M. Hada, 
 M. Ehara, K. Toyota, R. Fukuda, J. Hasegawa, M. Ishida, T. Nakajima, 
 Y. Honda, O. Kitao, H. Nakai, T. Vreven, J. A. Montgomery, Jr., 
 J. E. Peralta, F. Ogliaro, M. Bearpark, J. J. Heyd, E. Brothers, 
 K. N. Kudin, V. N. Staroverov, T. Keith, R. Kobayashi, J. Normand, 
 K. Raghavachari, A. Rendell, J. C. Burant, S. S. Iyengar, J. Tomasi, 
 M. Cossi, N. Rega, J. M. Millam, M. Klene, J. E. Knox, J. B. Cross, 
 V. Bakken, C. Adamo, J. Jaramillo, R. Gomperts, R. E. Stratmann, 
 O. Yazyev, A. J. Austin, R. Cammi, C. Pomelli, J. W. Ochterski, 
 R. L. Martin, K. Morokuma, V. G. Zakrzewski, G. A. Voth, 
 P. Salvador, J. J. Dannenberg, S. Dapprich, A. D. Daniels, 
 O. Farkas, J. B. Foresman, J. V. Ortiz, J. Cioslowski, 
 and D. J. Fox, Gaussian, Inc., Wallingford CT, 2013.
 
 ******************************************
 Gaussian 09:  ES64L-G09RevD.01 24-Apr-2013
                 6-Jul-2020 
 ******************************************
 %nprocshared=20
 Will use up to   20 processors via shared memory.
 -----------------------------------
 # opt b3lyp/3-21g geom=connectivity
 -----------------------------------
 1/14=-1,18=20,19=15,26=3,38=1,57=2/1,3;
 2/9=110,12=2,17=6,18=5,40=1/2;
 3/5=5,11=2,16=1,25=1,30=1,71=1,74=-5/1,2,3;
 4//1;
 5/5=2,38=5/2;
 6/7=2,8=2,9=2,10=2,28=1/1;
 7//1,2,3,16;
 1/14=-1,18=20,19=15,26=3/3(2);
 2/9=110/2;
 99//99;
 2/9=110/2;
 3/5=5,11=2,16=1,25=1,30=1,71=1,74=-5/1,2,3;
 4/5=5,16=3,69=1/1;
 5/5=2,38=5/2;
 7//1,2,3,16;
 1/14=-1,18=20,19=15,26=3/3(-5);
 2/9=110/2;
 6/7=2,8=2,9=2,10=2,19=2,28=1/1;
 99/9=1/99;
 -------------------
 Title Card Required
 -------------------
 Symbolic Z-matrix:
 Charge =  0 Multiplicity = 1
 O                    -11.8879   8.27933  -6.16987 
 O                    -11.6085   5.97494  -6.41861 
 O                    -6.44145   5.10871  -6.5589 
 O                    -3.72889   6.81512  -7.55273 
 O                    -3.54237   6.5585   -5.29767 
 N                    -7.07433   9.09091  -5.9989 
 N                    -5.81311   8.60911  -6.07008 
 C                    -8.19939   8.28814  -6.12581 
 C                    -8.02438   6.89116  -6.2965 
 C                    -10.5543   7.97462  -6.18927 
 C                    -9.503     8.84869  -6.07913 
 C                    -10.3808   6.58954  -6.34208 
 C                    -9.13711   6.02677  -6.39975 
 C                    -7.13115   10.5539  -5.88277 
 C                    -6.68298   6.32209  -6.3812 
 C                    -5.63146   7.3176   -6.24502 
 C                    -12.5911   7.02057  -6.30807 
 C                    -7.19328   11.2563  -7.2339 
 C                    -4.20154   6.85948  -6.28051 
 H                    -9.68224   9.91333  -5.96388 
 H                    -8.95557   4.95975  -6.51747 
 H                    -7.98811   10.8211  -5.24997 
 H                    -6.21999   10.8376  -5.34281 
 H                    -13.2008   7.05021  -7.22446 
 H                    -13.208    6.85347  -5.41172 
 H                    -6.31057   11.0016  -7.83566 
 H                    -8.09302   10.9803  -7.80134 
 H                    -7.20423   12.3453  -7.08635 
 H                    -2.80899   6.46575  -7.50106 
 

 GradGradGradGradGradGradGradGradGradGradGradGradGradGradGradGradGradGrad
 Berny optimization.
 Initialization pass.
                           ----------------------------
                           !    Initial Parameters    !
                           ! (Angstroms and Degrees)  !
 --------------------------                            --------------------------
 ! Name  Definition              Value          Derivative Info.                !
 --------------------------------------------------------------------------------
 ! R1    R(1,10)                 1.3681         estimate D2E/DX2                !
 ! R2    R(1,17)                 1.4485         estimate D2E/DX2                !
 ! R3    R(2,12)                 1.3751         estimate D2E/DX2                !
 ! R4    R(2,17)                 1.4391         estimate D2E/DX2                !
 ! R5    R(3,15)                 1.2499         estimate D2E/DX2                !
 ! R6    R(4,19)                 1.3579         estimate D2E/DX2                !
 ! R7    R(4,29)                 0.9854         estimate D2E/DX2                !
 ! R8    R(5,19)                 1.2211         estimate D2E/DX2                !
 ! R9    R(6,7)                  1.352          estimate D2E/DX2                !
 ! R10   R(6,8)                  1.3879         estimate D2E/DX2                !
 ! R11   R(6,14)                 1.4687         estimate D2E/DX2                !
 ! R12   R(7,16)                 1.3159         estimate D2E/DX2                !
 ! R13   R(8,9)                  1.4182         estimate D2E/DX2                !
 ! R14   R(8,11)                 1.4198         estimate D2E/DX2                !
 ! R15   R(9,13)                 1.4128         estimate D2E/DX2                !
 ! R16   R(9,15)                 1.4596         estimate D2E/DX2                !
 ! R17   R(10,11)                1.3716         estimate D2E/DX2                !
 ! R18   R(10,12)                1.4042         estimate D2E/DX2                !
 ! R19   R(11,20)                1.0858         estimate D2E/DX2                !
 ! R20   R(12,13)                1.3663         estimate D2E/DX2                !
 ! R21   R(13,21)                1.0887         estimate D2E/DX2                !
 ! R22   R(14,18)                1.5241         estimate D2E/DX2                !
 ! R23   R(14,22)                1.0983         estimate D2E/DX2                !
 ! R24   R(14,23)                1.0965         estimate D2E/DX2                !
 ! R25   R(15,16)                1.4544         estimate D2E/DX2                !
 ! R26   R(16,19)                1.5019         estimate D2E/DX2                !
 ! R27   R(17,24)                1.1011         estimate D2E/DX2                !
 ! R28   R(17,25)                1.1009         estimate D2E/DX2                !
 ! R29   R(18,26)                1.0983         estimate D2E/DX2                !
 ! R30   R(18,27)                1.099          estimate D2E/DX2                !
 ! R31   R(18,28)                1.099          estimate D2E/DX2                !
 ! A1    A(10,1,17)            106.1604         estimate D2E/DX2                !
 ! A2    A(12,2,17)            106.2947         estimate D2E/DX2                !
 ! A3    A(19,4,29)            106.7025         estimate D2E/DX2                !
 ! A4    A(7,6,8)              123.0421         estimate D2E/DX2                !
 ! A5    A(7,6,14)             113.2805         estimate D2E/DX2                !
 ! A6    A(8,6,14)             123.506          estimate D2E/DX2                !
 ! A7    A(6,7,16)             119.0473         estimate D2E/DX2                !
 ! A8    A(6,8,9)              118.7322         estimate D2E/DX2                !
 ! A9    A(6,8,11)             120.8583         estimate D2E/DX2                !
 ! A10   A(9,8,11)             120.4087         estimate D2E/DX2                !
 ! A11   A(8,9,13)             120.9489         estimate D2E/DX2                !
 ! A12   A(8,9,15)             120.2945         estimate D2E/DX2                !
 ! A13   A(13,9,15)            118.7541         estimate D2E/DX2                !
 ! A14   A(1,10,11)            127.1613         estimate D2E/DX2                !
 ! A15   A(1,10,12)            109.9784         estimate D2E/DX2                !
 ! A16   A(11,10,12)           122.8603         estimate D2E/DX2                !
 ! A17   A(8,11,10)            116.7123         estimate D2E/DX2                !
 ! A18   A(8,11,20)            122.8334         estimate D2E/DX2                !
 ! A19   A(10,11,20)           120.4543         estimate D2E/DX2                !
 ! A20   A(2,12,10)            109.67           estimate D2E/DX2                !
 ! A21   A(2,12,13)            128.774          estimate D2E/DX2                !
 ! A22   A(10,12,13)           121.5558         estimate D2E/DX2                !
 ! A23   A(9,13,12)            117.5054         estimate D2E/DX2                !
 ! A24   A(9,13,21)            118.4374         estimate D2E/DX2                !
 ! A25   A(12,13,21)           124.0571         estimate D2E/DX2                !
 ! A26   A(6,14,18)            112.9895         estimate D2E/DX2                !
 ! A27   A(6,14,22)            108.5475         estimate D2E/DX2                !
 ! A28   A(6,14,23)            105.3386         estimate D2E/DX2                !
 ! A29   A(18,14,22)           111.5222         estimate D2E/DX2                !
 ! A30   A(18,14,23)           110.5609         estimate D2E/DX2                !
 ! A31   A(22,14,23)           107.5607         estimate D2E/DX2                !
 ! A32   A(3,15,9)             124.3569         estimate D2E/DX2                !
 ! A33   A(3,15,16)            122.5538         estimate D2E/DX2                !
 ! A34   A(9,15,16)            113.0883         estimate D2E/DX2                !
 ! A35   A(7,16,15)            125.7633         estimate D2E/DX2                !
 ! A36   A(7,16,19)            115.7173         estimate D2E/DX2                !
 ! A37   A(15,16,19)           118.5114         estimate D2E/DX2                !
 ! A38   A(1,17,2)             107.8947         estimate D2E/DX2                !
 ! A39   A(1,17,24)            108.9556         estimate D2E/DX2                !
 ! A40   A(1,17,25)            109.0426         estimate D2E/DX2                !
 ! A41   A(2,17,24)            109.4938         estimate D2E/DX2                !
 ! A42   A(2,17,25)            109.5643         estimate D2E/DX2                !
 ! A43   A(24,17,25)           111.804          estimate D2E/DX2                !
 ! A44   A(14,18,26)           110.2491         estimate D2E/DX2                !
 ! A45   A(14,18,27)           112.0481         estimate D2E/DX2                !
 ! A46   A(14,18,28)           109.7587         estimate D2E/DX2                !
 ! A47   A(26,18,27)           108.4742         estimate D2E/DX2                !
 ! A48   A(26,18,28)           108.142          estimate D2E/DX2                !
 ! A49   A(27,18,28)           108.0609         estimate D2E/DX2                !
 ! A50   A(4,19,5)             123.9278         estimate D2E/DX2                !
 ! A51   A(4,19,16)            111.3145         estimate D2E/DX2                !
 ! A52   A(5,19,16)            124.7572         estimate D2E/DX2                !
 ! D1    D(17,1,10,11)        -179.5353         estimate D2E/DX2                !
 ! D2    D(17,1,10,12)           0.4143         estimate D2E/DX2                !
 ! D3    D(10,1,17,2)           -0.432          estimate D2E/DX2                !
 ! D4    D(10,1,17,24)        -119.227          estimate D2E/DX2                !
 ! D5    D(10,1,17,25)         118.4959         estimate D2E/DX2                !
 ! D6    D(17,2,12,10)          -0.036          estimate D2E/DX2                !
 ! D7    D(17,2,12,13)        -179.8529         estimate D2E/DX2                !
 ! D8    D(12,2,17,1)            0.2869         estimate D2E/DX2                !
 ! D9    D(12,2,17,24)         118.738          estimate D2E/DX2                !
 ! D10   D(12,2,17,25)        -118.308          estimate D2E/DX2                !
 ! D11   D(29,4,19,5)            2.5201         estimate D2E/DX2                !
 ! D12   D(29,4,19,16)        -177.216          estimate D2E/DX2                !
 ! D13   D(8,6,7,16)            -1.1866         estimate D2E/DX2                !
 ! D14   D(14,6,7,16)         -176.5762         estimate D2E/DX2                !
 ! D15   D(7,6,8,9)              2.0341         estimate D2E/DX2                !
 ! D16   D(7,6,8,11)          -178.3014         estimate D2E/DX2                !
 ! D17   D(14,6,8,9)           176.954          estimate D2E/DX2                !
 ! D18   D(14,6,8,11)           -3.3815         estimate D2E/DX2                !
 ! D19   D(7,6,14,18)           90.0833         estimate D2E/DX2                !
 ! D20   D(7,6,14,22)         -145.6745         estimate D2E/DX2                !
 ! D21   D(7,6,14,23)          -30.7116         estimate D2E/DX2                !
 ! D22   D(8,6,14,18)          -85.2817         estimate D2E/DX2                !
 ! D23   D(8,6,14,22)           38.9605         estimate D2E/DX2                !
 ! D24   D(8,6,14,23)          153.9234         estimate D2E/DX2                !
 ! D25   D(6,7,16,15)            0.3485         estimate D2E/DX2                !
 ! D26   D(6,7,16,19)         -178.601          estimate D2E/DX2                !
 ! D27   D(6,8,9,13)           178.5419         estimate D2E/DX2                !
 ! D28   D(6,8,9,15)            -2.0316         estimate D2E/DX2                !
 ! D29   D(11,8,9,13)           -1.1241         estimate D2E/DX2                !
 ! D30   D(11,8,9,15)          178.3024         estimate D2E/DX2                !
 ! D31   D(6,8,11,10)         -178.8614         estimate D2E/DX2                !
 ! D32   D(6,8,11,20)            1.2149         estimate D2E/DX2                !
 ! D33   D(9,8,11,10)            0.7974         estimate D2E/DX2                !
 ! D34   D(9,8,11,20)         -179.1262         estimate D2E/DX2                !
 ! D35   D(8,9,13,12)            0.6272         estimate D2E/DX2                !
 ! D36   D(8,9,13,21)         -179.2427         estimate D2E/DX2                !
 ! D37   D(15,9,13,12)        -178.8079         estimate D2E/DX2                !
 ! D38   D(15,9,13,21)           1.3221         estimate D2E/DX2                !
 ! D39   D(8,9,15,3)          -178.4357         estimate D2E/DX2                !
 ! D40   D(8,9,15,16)            1.2156         estimate D2E/DX2                !
 ! D41   D(13,9,15,3)            1.0033         estimate D2E/DX2                !
 ! D42   D(13,9,15,16)        -179.3454         estimate D2E/DX2                !
 ! D43   D(1,10,11,8)          179.9167         estimate D2E/DX2                !
 ! D44   D(1,10,11,20)          -0.1577         estimate D2E/DX2                !
 ! D45   D(12,10,11,8)          -0.0269         estimate D2E/DX2                !
 ! D46   D(12,10,11,20)        179.8987         estimate D2E/DX2                !
 ! D47   D(1,10,12,2)           -0.246          estimate D2E/DX2                !
 ! D48   D(1,10,12,13)         179.5864         estimate D2E/DX2                !
 ! D49   D(11,10,12,2)         179.7061         estimate D2E/DX2                !
 ! D50   D(11,10,12,13)         -0.4615         estimate D2E/DX2                !
 ! D51   D(2,12,13,9)          179.947          estimate D2E/DX2                !
 ! D52   D(2,12,13,21)          -0.191          estimate D2E/DX2                !
 ! D53   D(10,12,13,9)           0.1494         estimate D2E/DX2                !
 ! D54   D(10,12,13,21)       -179.9886         estimate D2E/DX2                !
 ! D55   D(6,14,18,26)         -59.3262         estimate D2E/DX2                !
 ! D56   D(6,14,18,27)          61.5916         estimate D2E/DX2                !
 ! D57   D(6,14,18,28)        -178.3491         estimate D2E/DX2                !
 ! D58   D(22,14,18,26)        178.0757         estimate D2E/DX2                !
 ! D59   D(22,14,18,27)        -61.0064         estimate D2E/DX2                !
 ! D60   D(22,14,18,28)         59.0528         estimate D2E/DX2                !
 ! D61   D(23,14,18,26)         58.4509         estimate D2E/DX2                !
 ! D62   D(23,14,18,27)        179.3687         estimate D2E/DX2                !
 ! D63   D(23,14,18,28)        -60.572          estimate D2E/DX2                !
 ! D64   D(3,15,16,7)          179.2766         estimate D2E/DX2                !
 ! D65   D(3,15,16,19)          -1.8004         estimate D2E/DX2                !
 ! D66   D(9,15,16,7)           -0.3818         estimate D2E/DX2                !
 ! D67   D(9,15,16,19)         178.5411         estimate D2E/DX2                !
 ! D68   D(7,16,19,4)          -93.2058         estimate D2E/DX2                !
 ! D69   D(7,16,19,5)           87.0608         estimate D2E/DX2                !
 ! D70   D(15,16,19,4)          87.7642         estimate D2E/DX2                !
 ! D71   D(15,16,19,5)         -91.9692         estimate D2E/DX2                !
 --------------------------------------------------------------------------------
 Trust Radius=3.00D-01 FncErr=1.00D-07 GrdErr=1.00D-06
 Number of steps in this run=    164 maximum allowed number of steps=    174.
 GradGradGradGradGradGradGradGradGradGradGradGradGradGradGradGradGradGrad

                          Input orientation:                          
 ---------------------------------------------------------------------
 Center     Atomic      Atomic             Coordinates (Angstroms)
 Number     Number       Type             X           Y           Z
 ---------------------------------------------------------------------
      1          8           0      -11.887900    8.279330   -6.169870
      2          8           0      -11.608500    5.974940   -6.418610
      3          8           0       -6.441450    5.108710   -6.558900
      4          8           0       -3.728890    6.815120   -7.552730
      5          8           0       -3.542370    6.558500   -5.297670
      6          7           0       -7.074330    9.090910   -5.998900
      7          7           0       -5.813110    8.609110   -6.070080
      8          6           0       -8.199390    8.288140   -6.125810
      9          6           0       -8.024380    6.891160   -6.296500
     10          6           0      -10.554300    7.974620   -6.189270
     11          6           0       -9.503000    8.848690   -6.079130
     12          6           0      -10.380800    6.589540   -6.342080
     13          6           0       -9.137110    6.026770   -6.399750
     14          6           0       -7.131150   10.553900   -5.882770
     15          6           0       -6.682980    6.322090   -6.381200
     16          6           0       -5.631460    7.317600   -6.245020
     17          6           0      -12.591100    7.020570   -6.308070
     18          6           0       -7.193280   11.256300   -7.233900
     19          6           0       -4.201540    6.859480   -6.280510
     20          1           0       -9.682240    9.913330   -5.963880
     21          1           0       -8.955570    4.959750   -6.517470
     22          1           0       -7.988110   10.821100   -5.249970
     23          1           0       -6.219990   10.837600   -5.342810
     24          1           0      -13.200800    7.050210   -7.224460
     25          1           0      -13.208000    6.853470   -5.411720
     26          1           0       -6.310570   11.001600   -7.835660
     27          1           0       -8.093020   10.980300   -7.801340
     28          1           0       -7.204230   12.345300   -7.086350
     29          1           0       -2.808990    6.465750   -7.501060
 ---------------------------------------------------------------------
                    Distance matrix (angstroms):
                    1          2          3          4          5
     1  O    0.000000
     2  O    2.334555   0.000000
     3  O    6.314111   5.241034   0.000000
     4  O    8.403907   8.005022   3.355222   0.000000
     5  O    8.565621   8.164527   3.478111   2.277266   0.000000
     6  N    4.884501   5.517619   4.070879   4.334233   4.402223
     7  N    6.084553   6.375490   3.589785   3.124200   3.155611
     8  C    3.688784   4.130213   3.658783   4.918461   5.036398
     9  C    4.107291   3.701390   2.398260   4.476062   4.603991
    10  C    1.368106   2.272148   5.026490   7.056181   7.208849
    11  C    2.453600   3.578661   4.857028   6.296606   6.433099
    12  C    2.270770   1.375077   4.214065   6.764944   6.917794
    13  C    3.562824   2.472005   2.852148   5.585669   5.726992
    14  C    5.280413   6.426559   5.530184   5.323778   5.402306
    15  C    5.564768   4.937880   1.249882   3.215930   3.330669
    16  C    6.330372   6.128448   2.373563   2.362703   2.416196
    17  C    1.448470   1.439119   6.444868   8.951545   9.116684
    18  C    5.659856   6.931928   6.230067   5.641607   6.256793
    19  C    7.817183   7.460867   2.856553   1.357906   1.221093
    20  H    2.752694   4.407740   5.825903   6.896791   7.028280
    21  H    4.442859   2.842256   2.518870   5.642016   5.774656
    22  H    4.745016   6.161023   6.061093   6.284229   6.159273
    23  H    6.273275   7.337496   5.860725   5.222037   5.048008
    24  H    2.084851   2.083511   7.064078   9.480512   9.861013
    25  H    2.085793   2.084237   7.081413   9.717969   9.670802
    26  H    6.425902   7.439315   6.031036   4.926635   5.817685
    27  H    4.935387   6.270899   6.224702   6.037894   6.821224
    28  H    6.269674   7.773349   7.295771   6.548159   7.077828
    29  H    9.353488   8.879413   3.990487   0.985366   2.324086
                    6          7          8          9         10
     6  N    0.000000
     7  N    1.351989   0.000000
     8  C    1.387914   2.408414   0.000000
     9  C    2.414552   2.809330   1.418209   0.000000
    10  C    3.659581   4.784942   2.376536   2.754247   0.000000
    11  C    2.442037   3.697671   1.419787   2.462822   1.371627
    12  C    4.160213   5.001644   2.773187   2.376082   1.404243
    13  C    3.715467   4.222101   2.463363   1.412798   2.418026
    14  C    1.468691   2.356803   2.516719   3.792716   4.297044
    15  C    2.822352   2.466562   2.496012   1.459578   4.213646
    16  C    2.299365   1.315902   2.747803   2.431166   4.966804
    17  C    5.900563   6.965719   4.574611   4.568568   2.252305
    18  C    2.495654   3.204210   3.324168   4.541354   4.812186
    19  C    3.648494   2.388021   4.248271   3.823005   6.450537
    20  H    2.734739   4.084414   2.205971   3.463040   2.137729
    21  H    4.568858   4.836635   3.435606   2.155525   3.428279
    22  H    2.095101   3.208754   2.688424   4.067059   3.945892
    23  H    2.052140   2.379210   3.321274   4.442942   5.263021
    24  H    6.572677   7.638110   5.268169   5.261343   2.988330
    25  H    6.555366   7.628900   5.258743   5.258723   2.983904
    26  H    2.758216   3.014755   3.722109   4.711887   5.466484
    27  H    2.802912   3.717229   3.172765   4.357789   4.206041
    28  H    3.433726   4.114260   4.286435   5.571728   5.579477
    29  H    5.228869   3.958084   5.853958   5.369565   7.999207
                   11         12         13         14         15
    11  C    0.000000
    12  C    2.437916   0.000000
    13  C    2.863548   1.366309   0.000000
    14  C    2.927793   5.146585   4.978559   0.000000
    15  C    3.798351   3.707686   2.471905   4.284566   0.000000
    16  C    4.166603   4.805801   3.738952   3.585238   1.454400
    17  C    3.595942   2.252192   3.595287   6.517389   5.949715
    18  C    3.530565   5.721388   5.641123   1.524066   5.033282
    19  C    5.665950   6.185460   5.006743   4.731760   2.540959
    20  H    1.085757   3.417397   3.948734   2.631534   4.697523
    21  H    3.951667   2.172155   1.088736   5.918266   2.653150
    22  H    2.621602   4.982346   5.062390   1.098277   4.819143
    23  H    3.908463   6.029668   5.724578   1.096474   4.656441
    24  H    4.268493   2.990520   4.270966   7.135589   6.612354
    25  H    4.260676   2.988024   4.269869   7.130440   6.618016
    26  H    4.232260   6.185776   5.899161   2.165079   4.914464
    27  H    3.081852   5.161603   5.252812   2.188132   5.069904
    28  H    4.304081   6.616140   6.643137   2.159412   6.086707
    29  H    7.246382   7.660996   6.438221   6.165460   4.035161
                   16         17         18         19         20
    16  C    0.000000
    17  C    6.966261   0.000000
    18  C    4.350922   6.923513   0.000000
    19  C    1.501934   8.391152   5.402915   0.000000
    20  H    4.819302   4.116794   3.100232   6.282064   0.000000
    21  H    4.084531   4.184245   6.577650   5.125029   5.037109
    22  H    4.338022   6.062270   2.181085   5.576249   2.050315
    23  H    3.681134   7.489492   2.167677   4.558384   3.636919
    24  H    7.637127   1.101083   7.333592   9.050641   4.708161
    25  H    7.636345   1.100878   7.673468   9.048268   4.700916
    26  H    4.069789   7.591257   1.098255   4.901393   4.007000
    27  H    4.679400   6.175924   1.098952   5.868364   2.653357
    28  H    5.334717   7.614252   1.099005   6.305533   3.648966
    29  H    3.204625   9.870194   6.499442   1.893135   7.841575
                   21         22         23         24         25
    21  H    0.000000
    22  H    6.074369   0.000000
    23  H    6.588804   1.770633   0.000000
    24  H    4.784541   6.729811   8.161902   0.000000
    25  H    4.784561   6.558620   8.044273   1.823399   0.000000
    26  H    6.725890   3.087477   2.499880   7.966324   8.405772
    27  H    6.216055   2.558484   3.094022   6.470534   6.993142
    28  H    7.611647   2.511960   2.506356   8.000994   8.307216
    29  H    6.404368   7.131603   5.950297  10.411907  10.613910
                   26         27         28         29
    26  H    0.000000
    27  H    1.782908   0.000000
    28  H    1.779220   1.778871   0.000000
    29  H    5.739944   6.956458   7.352498   0.000000
 Stoichiometry    C12H10N2O5
 Framework group  C1[X(C12H10N2O5)]
 Deg. of freedom    81
 Full point group                 C1      NOp   1
 Largest Abelian subgroup         C1      NOp   1
 Largest concise Abelian subgroup C1      NOp   1
                         Standard orientation:                         
 ---------------------------------------------------------------------
 Center     Atomic      Atomic             Coordinates (Angstroms)
 Number     Number       Type             X           Y           Z
 ---------------------------------------------------------------------
      1          8           0        4.049674    0.594735   -0.096706
      2          8           0        3.748097   -1.705884    0.160881
      3          8           0       -1.427208   -2.531245    0.219525
      4          8           0       -4.142565   -0.797942    1.157615
      5          8           0       -4.293319   -1.066686   -1.098707
      6          7           0       -0.753851    1.442494   -0.353224
      7          7           0       -2.019823    0.970906   -0.300386
      8          6           0        0.362601    0.631821   -0.202721
      9          6           0        0.173814   -0.762709   -0.026766
     10          6           0        2.713589    0.300476   -0.097898
     11          6           0        1.671163    1.181976   -0.230816
     12          6           0        2.526705   -1.082274    0.060135
     13          6           0        1.277851   -1.635046    0.100237
     14          6           0       -0.683630    2.904275   -0.477001
     15          6           0       -1.173235   -1.320862    0.038758
     16          6           0       -2.214493   -0.318083   -0.120914
     17          6           0        4.740575   -0.668573    0.060691
     18          6           0       -0.638621    3.614297    0.870820
     19          6           0       -3.648353   -0.764903   -0.106732
     20          1           0        1.860646    2.244484   -0.349311
     21          1           0        1.086008   -2.699901    0.221177
     22          1           0        0.185870    3.161021   -1.096891
     23          1           0       -1.583373    3.191761   -1.033840
     24          1           0        5.335064   -0.638134    0.986994
     25          1           0        5.371063   -0.845837   -0.824179
     26          1           0       -1.533249    3.370063    1.459169
     27          1           0        0.249304    3.334765    1.454898
     28          1           0       -0.616667    4.702271    0.717062
     29          1           0       -5.064181   -1.140488    1.092571
 ---------------------------------------------------------------------
 Rotational constants (GHZ):      0.6813857      0.2463166      0.1902857
 Standard basis: 3-21G (6D, 7F)
 There are   191 symmetry adapted cartesian basis functions of A   symmetry.
 There are   191 symmetry adapted basis functions of A   symmetry.
   191 basis functions,   315 primitive gaussians,   191 cartesian basis functions
    68 alpha electrons       68 beta electrons
       nuclear repulsion energy      1413.5252874061 Hartrees.
 NAtoms=   29 NActive=   29 NUniq=   29 SFac= 1.00D+00 NAtFMM=   60 NAOKFM=F Big=F
 Integral buffers will be    131072 words long.
 Raffenetti 2 integral format.
 Two-electron integral symmetry is turned on.
 One-electron integrals computed using PRISM.
 PrsmSu:  requested number of processors reduced to:   9 ShMem   1 Linda.
 NBasis=   191 RedAO= T EigKep=  1.28D-03  NBF=   191
 NBsUse=   191 1.00D-06 EigRej= -1.00D+00 NBFU=   191
 ExpMin= 1.83D-01 ExpMax= 3.22D+02 ExpMxC= 3.22D+02 IAcc=1 IRadAn=         1 AccDes= 0.00D+00
 Harris functional with IExCor=  402 and IRadAn=       1 diagonalized for initial guess.
 HarFok:  IExCor=  402 AccDes= 0.00D+00 IRadAn=         1 IDoV= 1 UseB2=F ITyADJ=14
 ICtDFT=  3500011 ScaDFX=  1.000000  1.000000  1.000000  1.000000
 FoFCou: FMM=F IPFlag=           0 FMFlag=      100000 FMFlg1=           0
         NFxFlg=           0 DoJE=T BraDBF=F KetDBF=T FulRan=T
         wScrn=  0.000000 ICntrl=     500 IOpCl=  0 I1Cent=   200000004 NGrid=           0
         NMat0=    1 NMatS0=      1 NMatT0=    0 NMatD0=    1 NMtDS0=    0 NMtDT0=    0
 Petite list used in FoFCou.
 Requested convergence on RMS density matrix=1.00D-08 within 128 cycles.
 Requested convergence on MAX density matrix=1.00D-06.
 Requested convergence on             energy=1.00D-06.
 No special actions if energy rises.
 Integral accuracy reduced to 1.0D-05 until final iterations.
 EnCoef did     2 forward-backward iterations
 Initial convergence to 1.0D-05 achieved.  Increase integral accuracy.
 SCF Done:  E(RB3LYP) =  -943.637324546     A.U. after   18 cycles
            NFock= 18  Conv=0.49D-08     -V/T= 2.0079

 **********************************************************************

            Population analysis using the SCF density.

 **********************************************************************

 Orbital symmetries:
       Occupied  (A) (A) (A) (A) (A) (A) (A) (A) (A) (A) (A) (A)
                 (A) (A) (A) (A) (A) (A) (A) (A) (A) (A) (A) (A)
                 (A) (A) (A) (A) (A) (A) (A) (A) (A) (A) (A) (A)
                 (A) (A) (A) (A) (A) (A) (A) (A) (A) (A) (A) (A)
                 (A) (A) (A) (A) (A) (A) (A) (A) (A) (A) (A) (A)
                 (A) (A) (A) (A) (A) (A) (A) (A)
       Virtual   (A) (A) (A) (A) (A) (A) (A) (A) (A) (A) (A) (A)
                 (A) (A) (A) (A) (A) (A) (A) (A) (A) (A) (A) (A)
                 (A) (A) (A) (A) (A) (A) (A) (A) (A) (A) (A) (A)
                 (A) (A) (A) (A) (A) (A) (A) (A) (A) (A) (A) (A)
                 (A) (A) (A) (A) (A) (A) (A) (A) (A) (A) (A) (A)
                 (A) (A) (A) (A) (A) (A) (A) (A) (A) (A) (A) (A)
                 (A) (A) (A) (A) (A) (A) (A) (A) (A) (A) (A) (A)
                 (A) (A) (A) (A) (A) (A) (A) (A) (A) (A) (A) (A)
                 (A) (A) (A) (A) (A) (A) (A) (A) (A) (A) (A) (A)
                 (A) (A) (A) (A) (A) (A) (A) (A) (A) (A) (A) (A)
                 (A) (A) (A)
 The electronic state is 1-A.
 Alpha  occ. eigenvalues --  -19.11592 -19.10868 -19.08060 -19.02838 -19.00756
 Alpha  occ. eigenvalues --  -14.35966 -14.31876 -10.26969 -10.26159 -10.22545
 Alpha  occ. eigenvalues --  -10.21474 -10.21155 -10.20612 -10.18658 -10.18068
 Alpha  occ. eigenvalues --  -10.16305 -10.15791 -10.15288 -10.13490  -1.16507
 Alpha  occ. eigenvalues --   -1.10977  -1.07338  -1.07041  -1.02323  -1.02049
 Alpha  occ. eigenvalues --   -0.90915  -0.88274  -0.81327  -0.79002  -0.77553
 Alpha  occ. eigenvalues --   -0.73170  -0.70395  -0.67698  -0.66424  -0.63130
 Alpha  occ. eigenvalues --   -0.62136  -0.60115  -0.56553  -0.55177  -0.54356
 Alpha  occ. eigenvalues --   -0.52237  -0.50744  -0.48726  -0.48236  -0.48017
 Alpha  occ. eigenvalues --   -0.46256  -0.45574  -0.45102  -0.44317  -0.42839
 Alpha  occ. eigenvalues --   -0.42043  -0.40977  -0.40076  -0.39793  -0.39147
 Alpha  occ. eigenvalues --   -0.38125  -0.37916  -0.37509  -0.36803  -0.36721
 Alpha  occ. eigenvalues --   -0.34111  -0.31084  -0.29984  -0.27511  -0.26846
 Alpha  occ. eigenvalues --   -0.24931  -0.23241  -0.21278
 Alpha virt. eigenvalues --   -0.06122  -0.02622   0.00158   0.00937   0.07989
 Alpha virt. eigenvalues --    0.08357   0.09224   0.10727   0.11117   0.12120
 Alpha virt. eigenvalues --    0.12919   0.13503   0.14669   0.15460   0.16133
 Alpha virt. eigenvalues --    0.16920   0.17511   0.17974   0.19216   0.20417
 Alpha virt. eigenvalues --    0.22656   0.23612   0.23972   0.26063   0.27883
 Alpha virt. eigenvalues --    0.29323   0.30053   0.33046   0.36922   0.37992
 Alpha virt. eigenvalues --    0.38991   0.42225   0.42719   0.49820   0.50731
 Alpha virt. eigenvalues --    0.58061   0.59685   0.62886   0.63858   0.65606
 Alpha virt. eigenvalues --    0.67494   0.68033   0.68639   0.70212   0.70333
 Alpha virt. eigenvalues --    0.70979   0.73017   0.73122   0.74083   0.74579
 Alpha virt. eigenvalues --    0.75751   0.76181   0.77082   0.77815   0.78102
 Alpha virt. eigenvalues --    0.80324   0.81699   0.82737   0.85546   0.87168
 Alpha virt. eigenvalues --    0.87293   0.87895   0.89233   0.91626   0.92079
 Alpha virt. eigenvalues --    0.95808   0.96113   0.96857   0.99038   0.99980
 Alpha virt. eigenvalues --    1.00371   1.04086   1.05348   1.06996   1.08577
 Alpha virt. eigenvalues --    1.10763   1.15218   1.17613   1.19598   1.22615
 Alpha virt. eigenvalues --    1.24964   1.28288   1.30771   1.32121   1.37590
 Alpha virt. eigenvalues --    1.39527   1.42576   1.43171   1.44444   1.46668
 Alpha virt. eigenvalues --    1.48335   1.49579   1.51332   1.53454   1.57144
 Alpha virt. eigenvalues --    1.57970   1.60327   1.62246   1.63142   1.64307
 Alpha virt. eigenvalues --    1.65206   1.67969   1.69150   1.72590   1.74987
 Alpha virt. eigenvalues --    1.81015   1.82107   1.86493   1.91723   1.95052
 Alpha virt. eigenvalues --    1.96972   2.01855   2.04998   2.16433   2.19972
 Alpha virt. eigenvalues --    2.39531   2.67856   3.00724   3.08833   3.22022
 Alpha virt. eigenvalues --    3.30011   3.45255   3.61881
          Condensed to atoms (all electrons):
               1          2          3          4          5          6
     1  O    8.279658  -0.036272   0.000000   0.000000   0.000000  -0.000001
     2  O   -0.036272   8.278234   0.000000   0.000000   0.000000   0.000000
     3  O    0.000000   0.000000   8.082553  -0.000277  -0.000150  -0.000012
     4  O    0.000000   0.000000  -0.000277   8.236377  -0.058082  -0.000007
     5  O    0.000000   0.000000  -0.000150  -0.058082   8.072280  -0.000006
     6  N   -0.000001   0.000000  -0.000012  -0.000007  -0.000006   7.303902
     7  N    0.000000   0.000000   0.001184  -0.000194  -0.000542   0.230762
     8  C    0.002734  -0.000203   0.003566  -0.000003  -0.000001   0.158343
     9  C   -0.000271   0.002707  -0.126385  -0.000004  -0.000028  -0.032385
    10  C    0.231369  -0.055766  -0.000006   0.000000   0.000000   0.005361
    11  C   -0.044580   0.004995   0.000003   0.000000   0.000000  -0.049644
    12  C   -0.059647   0.222765   0.000566   0.000000   0.000000  -0.000376
    13  C    0.005286  -0.046618   0.005482   0.000000   0.000000   0.004935
    14  C    0.000000   0.000000   0.000000   0.000000   0.000000   0.237659
    15  C    0.000000  -0.000007   0.621638   0.002977   0.000642  -0.034188
    16  C    0.000000   0.000000  -0.105414  -0.105413  -0.090430  -0.089037
    17  C    0.243737   0.254184   0.000000   0.000000   0.000000   0.000000
    18  C    0.000000   0.000000   0.000000   0.000000   0.000000  -0.057296
    19  C    0.000000   0.000000   0.010205   0.220112   0.522317   0.003719
    20  H   -0.001570  -0.000002   0.000000   0.000000   0.000000  -0.006646
    21  H   -0.000001  -0.001461   0.011493   0.000000   0.000000  -0.000010
    22  H   -0.000001   0.000000   0.000000   0.000000   0.000000  -0.035079
    23  H    0.000000   0.000000   0.000000   0.000000   0.000000  -0.032727
    24  H   -0.032525  -0.033553   0.000000   0.000000   0.000000   0.000000
    25  H   -0.032722  -0.033699   0.000000   0.000000   0.000000   0.000000
    26  H    0.000000   0.000000   0.000000   0.000000   0.000000  -0.002135
    27  H    0.000000   0.000000   0.000000   0.000000   0.000000  -0.001721
    28  H    0.000000   0.000000   0.000000   0.000000   0.000000   0.002719
    29  H    0.000000   0.000000   0.000014   0.237078   0.005304   0.000002
               7          8          9         10         11         12
     1  O    0.000000   0.002734  -0.000271   0.231369  -0.044580  -0.059647
     2  O    0.000000  -0.000203   0.002707  -0.055766   0.004995   0.222765
     3  O    0.001184   0.003566  -0.126385  -0.000006   0.000003   0.000566
     4  O   -0.000194  -0.000003  -0.000004   0.000000   0.000000   0.000000
     5  O   -0.000542  -0.000001  -0.000028   0.000000   0.000000   0.000000
     6  N    0.230762   0.158343  -0.032385   0.005361  -0.049644  -0.000376
     7  N    6.854985  -0.042055  -0.016620  -0.000038   0.001749  -0.000002
     8  C   -0.042055   5.106758   0.303446  -0.033820   0.336080  -0.040375
     9  C   -0.016620   0.303446   6.045046  -0.045804  -0.043896  -0.054557
    10  C   -0.000038  -0.033820  -0.045804   5.287095   0.309731   0.141652
    11  C    0.001749   0.336080  -0.043896   0.309731   5.379000  -0.030702
    12  C   -0.000002  -0.040375  -0.054557   0.141652  -0.030702   5.381883
    13  C   -0.000130  -0.060160   0.316471  -0.023203  -0.041238   0.238815
    14  C   -0.072045  -0.065495   0.001114   0.000242  -0.000309   0.000001
    15  C   -0.012270  -0.001553  -0.074604  -0.001075   0.006085   0.012225
    16  C    0.400680  -0.023446  -0.188168  -0.000004  -0.000511  -0.000115
    17  C    0.000000  -0.000220  -0.000213  -0.094558   0.005958  -0.097108
    18  C    0.000217   0.000280  -0.000029  -0.000001  -0.001072  -0.000001
    19  C   -0.071337  -0.001389   0.009309   0.000000  -0.000001   0.000000
    20  H    0.000002  -0.043323   0.003682  -0.043554   0.384992   0.004928
    21  H   -0.000010   0.002814  -0.051531   0.004355  -0.000377  -0.035157
    22  H    0.003030  -0.000077   0.000145   0.000066   0.000452  -0.000004
    23  H    0.009109   0.004125  -0.000083  -0.000005  -0.000057   0.000000
    24  H    0.000000   0.000001   0.000001   0.002291  -0.000041   0.002582
    25  H    0.000000   0.000001   0.000002   0.002325  -0.000028   0.002533
    26  H    0.003831   0.000278  -0.000003   0.000001  -0.000034   0.000000
    27  H   -0.000063   0.001841  -0.000020  -0.000038   0.001527   0.000001
    28  H   -0.000023  -0.000023   0.000000   0.000000  -0.000005   0.000000
    29  H   -0.000087   0.000000   0.000004   0.000000   0.000000   0.000000
              13         14         15         16         17         18
     1  O    0.005286   0.000000   0.000000   0.000000   0.243737   0.000000
     2  O   -0.046618   0.000000  -0.000007   0.000000   0.254184   0.000000
     3  O    0.005482   0.000000   0.621638  -0.105414   0.000000   0.000000
     4  O    0.000000   0.000000   0.002977  -0.105413   0.000000   0.000000
     5  O    0.000000   0.000000   0.000642  -0.090430   0.000000   0.000000
     6  N    0.004935   0.237659  -0.034188  -0.089037   0.000000  -0.057296
     7  N   -0.000130  -0.072045  -0.012270   0.400680   0.000000   0.000217
     8  C   -0.060160  -0.065495  -0.001553  -0.023446  -0.000220   0.000280
     9  C    0.316471   0.001114  -0.074604  -0.188168  -0.000213  -0.000029
    10  C   -0.023203   0.000242  -0.001075  -0.000004  -0.094558  -0.000001
    11  C   -0.041238  -0.000309   0.006085  -0.000511   0.005958  -0.001072
    12  C    0.238815   0.000001   0.012225  -0.000115  -0.097108  -0.000001
    13  C    5.457534  -0.000071  -0.072304   0.012385   0.005302   0.000002
    14  C   -0.000071   5.206233  -0.000132   0.004204   0.000000   0.265759
    15  C   -0.072304  -0.000132   5.275366  -0.051535   0.000001  -0.000009
    16  C    0.012385   0.004204  -0.051535   5.967723   0.000000   0.000010
    17  C    0.005302   0.000000   0.000001   0.000000   4.925846   0.000000
    18  C    0.000002   0.265759  -0.000009   0.000010   0.000000   5.363595
    19  C   -0.000065  -0.000046  -0.066773   0.073140   0.000000   0.000006
    20  H   -0.000598   0.001728   0.000007   0.000003  -0.000107  -0.000154
    21  H    0.381095   0.000000   0.000219   0.000923  -0.000081   0.000000
    22  H   -0.000002   0.357286   0.000019  -0.000144   0.000000  -0.050273
    23  H    0.000001   0.365127   0.000038   0.000222   0.000000  -0.043429
    24  H   -0.000021   0.000000   0.000000   0.000000   0.326472   0.000000
    25  H   -0.000027   0.000000   0.000000   0.000000   0.325832   0.000000
    26  H    0.000000  -0.041251   0.000011   0.000000   0.000000   0.366082
    27  H   -0.000001  -0.040460  -0.000001   0.000008   0.000000   0.366479
    28  H    0.000000  -0.035711   0.000000  -0.000001   0.000000   0.351723
    29  H    0.000000   0.000000  -0.000384   0.011066   0.000000   0.000000
              19         20         21         22         23         24
     1  O    0.000000  -0.001570  -0.000001  -0.000001   0.000000  -0.032525
     2  O    0.000000  -0.000002  -0.001461   0.000000   0.000000  -0.033553
     3  O    0.010205   0.000000   0.011493   0.000000   0.000000   0.000000
     4  O    0.220112   0.000000   0.000000   0.000000   0.000000   0.000000
     5  O    0.522317   0.000000   0.000000   0.000000   0.000000   0.000000
     6  N    0.003719  -0.006646  -0.000010  -0.035079  -0.032727   0.000000
     7  N   -0.071337   0.000002  -0.000010   0.003030   0.009109   0.000000
     8  C   -0.001389  -0.043323   0.002814  -0.000077   0.004125   0.000001
     9  C    0.009309   0.003682  -0.051531   0.000145  -0.000083   0.000001
    10  C    0.000000  -0.043554   0.004355   0.000066  -0.000005   0.002291
    11  C   -0.000001   0.384992  -0.000377   0.000452  -0.000057  -0.000041
    12  C    0.000000   0.004928  -0.035157  -0.000004   0.000000   0.002582
    13  C   -0.000065  -0.000598   0.381095  -0.000002   0.000001  -0.000021
    14  C   -0.000046   0.001728   0.000000   0.357286   0.365127   0.000000
    15  C   -0.066773   0.000007   0.000219   0.000019   0.000038   0.000000
    16  C    0.073140   0.000003   0.000923  -0.000144   0.000222   0.000000
    17  C    0.000000  -0.000107  -0.000081   0.000000   0.000000   0.326472
    18  C    0.000006  -0.000154   0.000000  -0.050273  -0.043429   0.000000
    19  C    4.702131   0.000000  -0.000005  -0.000001  -0.000041   0.000000
    20  H    0.000000   0.479762   0.000002   0.003103   0.000049  -0.000001
    21  H   -0.000005   0.000002   0.448955   0.000000   0.000000  -0.000001
    22  H   -0.000001   0.003103   0.000000   0.531148  -0.022023   0.000000
    23  H   -0.000041   0.000049   0.000000  -0.022023   0.471002   0.000000
    24  H    0.000000  -0.000001  -0.000001   0.000000   0.000000   0.564939
    25  H    0.000000   0.000000  -0.000001   0.000000   0.000000  -0.057500
    26  H   -0.000006  -0.000017   0.000000   0.003502  -0.002163   0.000000
    27  H    0.000000   0.001098   0.000000  -0.003074   0.002948   0.000000
    28  H    0.000000   0.000037   0.000000   0.000065  -0.000580   0.000000
    29  H   -0.028726   0.000000   0.000000   0.000000   0.000000   0.000000
              25         26         27         28         29
     1  O   -0.032722   0.000000   0.000000   0.000000   0.000000
     2  O   -0.033699   0.000000   0.000000   0.000000   0.000000
     3  O    0.000000   0.000000   0.000000   0.000000   0.000014
     4  O    0.000000   0.000000   0.000000   0.000000   0.237078
     5  O    0.000000   0.000000   0.000000   0.000000   0.005304
     6  N    0.000000  -0.002135  -0.001721   0.002719   0.000002
     7  N    0.000000   0.003831  -0.000063  -0.000023  -0.000087
     8  C    0.000001   0.000278   0.001841  -0.000023   0.000000
     9  C    0.000002  -0.000003  -0.000020   0.000000   0.000004
    10  C    0.002325   0.000001  -0.000038   0.000000   0.000000
    11  C   -0.000028  -0.000034   0.001527  -0.000005   0.000000
    12  C    0.002533   0.000000   0.000001   0.000000   0.000000
    13  C   -0.000027   0.000000  -0.000001   0.000000   0.000000
    14  C    0.000000  -0.041251  -0.040460  -0.035711   0.000000
    15  C    0.000000   0.000011  -0.000001   0.000000  -0.000384
    16  C    0.000000   0.000000   0.000008  -0.000001   0.011066
    17  C    0.325832   0.000000   0.000000   0.000000   0.000000
    18  C    0.000000   0.366082   0.366479   0.351723   0.000000
    19  C    0.000000  -0.000006   0.000000   0.000000  -0.028726
    20  H    0.000000  -0.000017   0.001098   0.000037   0.000000
    21  H   -0.000001   0.000000   0.000000   0.000000   0.000000
    22  H    0.000000   0.003502  -0.003074   0.000065   0.000000
    23  H    0.000000  -0.002163   0.002948  -0.000580   0.000000
    24  H   -0.057500   0.000000   0.000000   0.000000   0.000000
    25  H    0.565844   0.000000   0.000000   0.000000   0.000000
    26  H    0.000000   0.499792  -0.025167  -0.023628   0.000000
    27  H    0.000000  -0.025167   0.517166  -0.025180   0.000000
    28  H    0.000000  -0.023628  -0.025180   0.531487   0.000000
    29  H    0.000000   0.000000   0.000000   0.000000   0.409064
 Mulliken charges:
               1
     1  O   -0.555193
     2  O   -0.555303
     3  O   -0.504462
     4  O   -0.532564
     5  O   -0.451304
     6  N   -0.606133
     7  N   -0.290131
     8  C    0.391878
     9  C   -0.047328
    10  C    0.313381
    11  C   -0.218077
    12  C    0.310095
    13  C   -0.182866
    14  C   -0.183833
    15  C    0.395609
    16  C    0.183853
    17  C    0.104954
    18  C   -0.561889
    19  C    0.627453
    20  H    0.216582
    21  H    0.238780
    22  H    0.211862
    23  H    0.248488
    24  H    0.227356
    25  H    0.227441
    26  H    0.220907
    27  H    0.204659
    28  H    0.199120
    29  H    0.366665
 Sum of Mulliken charges =   0.00000
 Mulliken charges with hydrogens summed into heavy atoms:
               1
     1  O   -0.555193
     2  O   -0.555303
     3  O   -0.504462
     4  O   -0.165899
     5  O   -0.451304
     6  N   -0.606133
     7  N   -0.290131
     8  C    0.391878
     9  C   -0.047328
    10  C    0.313381
    11  C   -0.001495
    12  C    0.310095
    13  C    0.055914
    14  C    0.276517
    15  C    0.395609
    16  C    0.183853
    17  C    0.559751
    18  C    0.062797
    19  C    0.627453
 Electronic spatial extent (au):  <R**2>=           5421.5231
 Charge=              0.0000 electrons
 Dipole moment (field-independent basis, Debye):
    X=              4.4332    Y=              4.5863    Z=              0.9220  Tot=              6.4450
 Quadrupole moment (field-independent basis, Debye-Ang):
   XX=            -92.6124   YY=           -106.6306   ZZ=           -111.2600
   XY=             -5.6785   XZ=             -7.4079   YZ=             -2.2137
 Traceless Quadrupole moment (field-independent basis, Debye-Ang):
   XX=             10.8886   YY=             -3.1296   ZZ=             -7.7590
   XY=             -5.6785   XZ=             -7.4079   YZ=             -2.2137
 Octapole moment (field-independent basis, Debye-Ang**2):
  XXX=             43.7259  YYY=             46.7338  ZZZ=              3.8062  XYY=             -6.1629
  XXY=            -27.5319  XXZ=             47.8634  XZZ=              9.1815  YZZ=             -0.4824
  YYZ=             -2.1828  XYZ=             12.2159
 Hexadecapole moment (field-independent basis, Debye-Ang**3):
 XXXX=          -3716.0676 YYYY=          -1762.2384 ZZZZ=           -269.2350 XXXY=             -0.2636
 XXXZ=           -241.6646 YYYX=             -3.5499 YYYZ=            -14.2217 ZZZX=             -9.2206
 ZZZY=             -7.9713 XXYY=          -1126.0748 XXZZ=           -842.1703 YYZZ=           -346.7960
 XXYZ=            -59.6207 YYXZ=            -17.1401 ZZXY=             -5.0255
 N-N= 1.413525287406D+03 E-N=-5.029594525505D+03  KE= 9.362838937127D+02
 PrsmSu:  requested number of processors reduced to:   9 ShMem   1 Linda.
 Calling FoFJK, ICntrl=      2127 FMM=F ISym2X=0 I1Cent= 0 IOpClX= 0 NMat=1 NMatS=1 NMatT=0.
 ***** Axes restored to original set *****
 -------------------------------------------------------------------
 Center     Atomic                   Forces (Hartrees/Bohr)
 Number     Number              X              Y              Z
 -------------------------------------------------------------------
      1        8          -0.005969839    0.017601300    0.001958114
      2        8          -0.002202763   -0.018694696   -0.002122748
      3        8          -0.001069034   -0.001825107    0.000600268
      4        8          -0.006076889    0.002185185   -0.007664609
      5        8           0.005384884   -0.001493703    0.001582159
      6        7          -0.012734642   -0.000876919   -0.001097123
      7        7           0.015292842   -0.013592329   -0.002093029
      8        6           0.000374384    0.000755330    0.000379342
      9        6          -0.001985329    0.003855864    0.000728756
     10        6           0.019047548    0.004097179    0.000708603
     11        6          -0.002235367   -0.001189026   -0.000143659
     12        6           0.020934178   -0.000027215    0.000313996
     13        6           0.001619880   -0.001900819   -0.000487718
     14        6          -0.000028832    0.008248029    0.012956467
     15        6           0.003318158   -0.002119737   -0.001136760
     16        6           0.002066884    0.015014895   -0.002450530
     17        6          -0.037279176   -0.004522530   -0.001080035
     18        6          -0.000248641    0.005058806   -0.010006041
     19        6          -0.014297029   -0.001673196    0.013051348
     20        1           0.000750125   -0.006104163   -0.000821246
     21        1          -0.001402961    0.005542940    0.000124339
     22        1           0.002590628   -0.000610392   -0.002161869
     23        1          -0.002274352   -0.001345517   -0.002441317
     24        1           0.001929585   -0.000200602    0.004948413
     25        1           0.002035232    0.000855520   -0.004620759
     26        1          -0.002054369   -0.000497220    0.002141390
     27        1           0.002062510   -0.000389747    0.002113034
     28        1           0.000006216   -0.002135932    0.000118220
     29        1           0.012446169   -0.004016199   -0.003397007
 -------------------------------------------------------------------
 Cartesian Forces:  Max     0.037279176 RMS     0.007614553

 GradGradGradGradGradGradGradGradGradGradGradGradGradGradGradGradGradGrad
 Berny optimization.
 FormGI is forming the generalized inverse of G from B-inverse, IUseBI=4.
 Internal  Forces:  Max     0.021795314 RMS     0.004619052
 Search for a local minimum.
 Step number   1 out of a maximum of  164
 All quantities printed in internal units (Hartrees-Bohrs-Radians)
 Mixed Optimization -- RFO/linear search
 Second derivative matrix not updated -- first step.
 ITU=  0
     Eigenvalues ---    0.00448   0.00740   0.00783   0.01237   0.01287
     Eigenvalues ---    0.01334   0.01368   0.01445   0.01577   0.01715
     Eigenvalues ---    0.01829   0.01870   0.02027   0.02098   0.02158
     Eigenvalues ---    0.02201   0.02224   0.02249   0.02258   0.02349
     Eigenvalues ---    0.04142   0.05331   0.05510   0.05756   0.07426
     Eigenvalues ---    0.09633   0.09935   0.11688   0.11957   0.12901
     Eigenvalues ---    0.16000   0.16000   0.16000   0.16000   0.16000
     Eigenvalues ---    0.16000   0.21974   0.23143   0.23824   0.24029
     Eigenvalues ---    0.24940   0.24963   0.24994   0.24998   0.24998
     Eigenvalues ---    0.24999   0.25000   0.25000   0.25000   0.25000
     Eigenvalues ---    0.29978   0.32175   0.33563   0.33585   0.33792
     Eigenvalues ---    0.33798   0.33873   0.33876   0.34075   0.34959
     Eigenvalues ---    0.35308   0.35557   0.35897   0.36067   0.36679
     Eigenvalues ---    0.38166   0.39110   0.40729   0.42516   0.43252
     Eigenvalues ---    0.46392   0.47612   0.49202   0.50357   0.50434
     Eigenvalues ---    0.50685   0.53101   0.53373   0.61080   0.83280
     Eigenvalues ---    0.94901
 RFO step:  Lambda=-8.45321005D-03 EMin= 4.47596049D-03
 Linear search not attempted -- first point.
 Iteration  1 RMS(Cart)=  0.03751763 RMS(Int)=  0.00049610
 Iteration  2 RMS(Cart)=  0.00091699 RMS(Int)=  0.00006393
 Iteration  3 RMS(Cart)=  0.00000072 RMS(Int)=  0.00006392
 Variable       Old X    -DE/DX   Delta X   Delta X   Delta X     New X
                                 (Linear)    (Quad)   (Total)
    R1        2.58535   0.02100   0.00000   0.03986   0.03981   2.62516
    R2        2.73721   0.02046   0.00000   0.05307   0.05318   2.79039
    R3        2.59852   0.02180   0.00000   0.04256   0.04252   2.64104
    R4        2.71954   0.02067   0.00000   0.05200   0.05212   2.77166
    R5        2.36193   0.00148   0.00000   0.00176   0.00176   2.36369
    R6        2.56607   0.01263   0.00000   0.02330   0.02330   2.58937
    R7        1.86207   0.01287   0.00000   0.02513   0.02513   1.88720
    R8        2.30753   0.00455   0.00000   0.00475   0.00475   2.31229
    R9        2.55489   0.01738   0.00000   0.03223   0.03222   2.58711
   R10        2.62278   0.00350   0.00000   0.00818   0.00816   2.63093
   R11        2.77542   0.00851   0.00000   0.02316   0.02316   2.79859
   R12        2.48669  -0.00716   0.00000  -0.01117  -0.01116   2.47554
   R13        2.68003  -0.00234   0.00000  -0.00558  -0.00557   2.67446
   R14        2.68301   0.00123   0.00000   0.00290   0.00291   2.68592
   R15        2.66980  -0.00008   0.00000  -0.00039  -0.00038   2.66942
   R16        2.75820   0.00133   0.00000   0.00224   0.00225   2.76045
   R17        2.59200  -0.00068   0.00000  -0.00114  -0.00115   2.59085
   R18        2.65364   0.00368   0.00000   0.00709   0.00692   2.66056
   R19        2.05178  -0.00620   0.00000  -0.01714  -0.01714   2.03464
   R20        2.58195  -0.00183   0.00000  -0.00353  -0.00354   2.57841
   R21        2.05741  -0.00568   0.00000  -0.01586  -0.01586   2.04155
   R22        2.88007   0.00596   0.00000   0.01934   0.01934   2.89941
   R23        2.07544  -0.00342   0.00000  -0.00984  -0.00984   2.06561
   R24        2.07204  -0.00344   0.00000  -0.00986  -0.00986   2.06217
   R25        2.74842   0.00094   0.00000   0.00134   0.00136   2.74977
   R26        2.83824  -0.00098   0.00000  -0.00297  -0.00297   2.83527
   R27        2.08074  -0.00519   0.00000  -0.01509  -0.01509   2.06565
   R28        2.08036  -0.00503   0.00000  -0.01462  -0.01462   2.06574
   R29        2.07540  -0.00271   0.00000  -0.00780  -0.00780   2.06760
   R30        2.07672  -0.00268   0.00000  -0.00772  -0.00772   2.06899
   R31        2.07682  -0.00210   0.00000  -0.00607  -0.00607   2.07075
    A1        1.85285   0.00433   0.00000   0.01832   0.01836   1.87121
    A2        1.85519   0.00403   0.00000   0.01760   0.01765   1.87284
    A3        1.86231   0.00767   0.00000   0.04552   0.04552   1.90783
    A4        2.14749  -0.00185   0.00000  -0.00375  -0.00377   2.14372
    A5        1.97712  -0.00029   0.00000  -0.00271  -0.00270   1.97441
    A6        2.15559   0.00215   0.00000   0.00679   0.00680   2.16239
    A7        2.07777  -0.00109   0.00000  -0.00162  -0.00161   2.07616
    A8        2.07227  -0.00164   0.00000  -0.00443  -0.00445   2.06782
    A9        2.10937   0.00513   0.00000   0.01968   0.01970   2.12907
   A10        2.10153  -0.00349   0.00000  -0.01523  -0.01523   2.08630
   A11        2.11096   0.00134   0.00000   0.00486   0.00486   2.11581
   A12        2.09954   0.00226   0.00000   0.00711   0.00712   2.10665
   A13        2.07265  -0.00360   0.00000  -0.01196  -0.01196   2.06069
   A14        2.21938   0.00140   0.00000   0.00660   0.00673   2.22612
   A15        1.91948   0.00026   0.00000  -0.00091  -0.00108   1.91840
   A16        2.14432  -0.00166   0.00000  -0.00568  -0.00565   2.13867
   A17        2.03701   0.00373   0.00000   0.01586   0.01582   2.05283
   A18        2.14385  -0.00158   0.00000  -0.00622  -0.00620   2.13765
   A19        2.10232  -0.00215   0.00000  -0.00964  -0.00962   2.09270
   A20        1.91410   0.00014   0.00000  -0.00100  -0.00117   1.91293
   A21        2.24753   0.00234   0.00000   0.01039   0.01053   2.25806
   A22        2.12155  -0.00248   0.00000  -0.00940  -0.00937   2.11218
   A23        2.05086   0.00256   0.00000   0.00968   0.00964   2.06049
   A24        2.06712  -0.00081   0.00000  -0.00202  -0.00200   2.06512
   A25        2.16520  -0.00176   0.00000  -0.00766  -0.00764   2.15757
   A26        1.97204  -0.00319   0.00000  -0.01605  -0.01607   1.95597
   A27        1.89451   0.00150   0.00000   0.00806   0.00806   1.90257
   A28        1.83851   0.00061   0.00000  -0.00182  -0.00188   1.83663
   A29        1.94643   0.00053   0.00000   0.00248   0.00250   1.94893
   A30        1.92965   0.00072   0.00000   0.00112   0.00105   1.93071
   A31        1.87729  -0.00003   0.00000   0.00712   0.00711   1.88440
   A32        2.17044  -0.00233   0.00000  -0.00686  -0.00693   2.16350
   A33        2.13897   0.00093   0.00000   0.00575   0.00567   2.14464
   A34        1.97376   0.00140   0.00000   0.00122   0.00120   1.97496
   A35        2.19498   0.00093   0.00000   0.00167   0.00162   2.19661
   A36        2.01965   0.00660   0.00000   0.02633   0.02622   2.04586
   A37        2.06841  -0.00754   0.00000  -0.02838  -0.02848   2.03994
   A38        1.88312  -0.00877   0.00000  -0.03399  -0.03375   1.84937
   A39        1.90163   0.00238   0.00000   0.00920   0.00917   1.91081
   A40        1.90315   0.00225   0.00000   0.00757   0.00751   1.91067
   A41        1.91103   0.00256   0.00000   0.01081   0.01077   1.92179
   A42        1.91226   0.00242   0.00000   0.00917   0.00909   1.92135
   A43        1.95135  -0.00116   0.00000  -0.00400  -0.00408   1.94727
   A44        1.92421  -0.00141   0.00000  -0.00937  -0.00942   1.91479
   A45        1.95561  -0.00151   0.00000  -0.01017  -0.01021   1.94540
   A46        1.91565   0.00016   0.00000   0.00311   0.00313   1.91878
   A47        1.89323   0.00102   0.00000   0.00201   0.00191   1.89514
   A48        1.88743   0.00095   0.00000   0.00802   0.00804   1.89547
   A49        1.88602   0.00093   0.00000   0.00733   0.00735   1.89337
   A50        2.16295  -0.00232   0.00000  -0.00897  -0.00897   2.15398
   A51        1.94280  -0.00365   0.00000  -0.01413  -0.01413   1.92868
   A52        2.17742   0.00597   0.00000   0.02309   0.02309   2.20051
    D1       -3.13348  -0.00012   0.00000  -0.00413  -0.00414  -3.13762
    D2        0.00723  -0.00005   0.00000  -0.00133  -0.00133   0.00590
    D3       -0.00754   0.00008   0.00000   0.00048   0.00047  -0.00707
    D4       -2.08090   0.00068   0.00000   0.00179   0.00179  -2.07911
    D5        2.06814  -0.00079   0.00000  -0.00378  -0.00377   2.06437
    D6       -0.00063  -0.00002   0.00000  -0.00163  -0.00164  -0.00227
    D7       -3.13902   0.00004   0.00000   0.00031   0.00029  -3.13873
    D8        0.00501  -0.00004   0.00000   0.00067   0.00068   0.00569
    D9        2.07237  -0.00082   0.00000  -0.00188  -0.00192   2.07045
   D10       -2.06486   0.00099   0.00000   0.00618   0.00619  -2.05867
   D11        0.04398  -0.00025   0.00000  -0.00852  -0.00851   0.03547
   D12       -3.09300  -0.00023   0.00000  -0.00703  -0.00704  -3.10004
   D13       -0.02071  -0.00031   0.00000  -0.00911  -0.00902  -0.02973
   D14       -3.08184  -0.00054   0.00000  -0.01391  -0.01382  -3.09565
   D15        0.03550  -0.00008   0.00000  -0.00188  -0.00190   0.03360
   D16       -3.11195   0.00001   0.00000   0.00187   0.00188  -3.11006
   D17        3.08843   0.00004   0.00000   0.00291   0.00291   3.09134
   D18       -0.05902   0.00013   0.00000   0.00665   0.00669  -0.05232
   D19        1.57225   0.00025   0.00000   0.01685   0.01690   1.58915
   D20       -2.54250  -0.00017   0.00000   0.01487   0.01487  -2.52763
   D21       -0.53602   0.00079   0.00000   0.02586   0.02585  -0.51017
   D22       -1.48845   0.00023   0.00000   0.01259   0.01261  -1.47584
   D23        0.67999  -0.00019   0.00000   0.01061   0.01058   0.69057
   D24        2.68647   0.00077   0.00000   0.02160   0.02156   2.70803
   D25        0.00608   0.00035   0.00000   0.00911   0.00906   0.01514
   D26       -3.11718   0.00101   0.00000   0.03425   0.03464  -3.08254
   D27        3.11614   0.00031   0.00000   0.01078   0.01075   3.12690
   D28       -0.03546   0.00034   0.00000   0.01275   0.01270  -0.02275
   D29       -0.01962   0.00018   0.00000   0.00694   0.00694  -0.01268
   D30        3.11196   0.00021   0.00000   0.00890   0.00889   3.12086
   D31       -3.12172  -0.00012   0.00000  -0.00510  -0.00512  -3.12684
   D32        0.02120  -0.00005   0.00000  -0.00242  -0.00243   0.01877
   D33        0.01392  -0.00001   0.00000  -0.00125  -0.00126   0.01266
   D34       -3.12634   0.00005   0.00000   0.00142   0.00143  -3.12491
   D35        0.01095  -0.00018   0.00000  -0.00740  -0.00746   0.00349
   D36       -3.12838  -0.00025   0.00000  -0.00948  -0.00953  -3.13790
   D37       -3.12079  -0.00024   0.00000  -0.00944  -0.00946  -3.13025
   D38        0.02307  -0.00032   0.00000  -0.01152  -0.01153   0.01154
   D39       -3.11429  -0.00073   0.00000  -0.03185  -0.03173   3.13716
   D40        0.02122  -0.00028   0.00000  -0.01228  -0.01228   0.00894
   D41        0.01751  -0.00068   0.00000  -0.02984  -0.02975  -0.01224
   D42       -3.13017  -0.00023   0.00000  -0.01027  -0.01030  -3.14047
   D43        3.14014  -0.00004   0.00000  -0.00050  -0.00049   3.13965
   D44       -0.00275  -0.00010   0.00000  -0.00310  -0.00310  -0.00585
   D45       -0.00047  -0.00012   0.00000  -0.00363  -0.00362  -0.00409
   D46        3.13982  -0.00018   0.00000  -0.00623  -0.00623   3.13359
   D47       -0.00429   0.00006   0.00000   0.00197   0.00196  -0.00234
   D48        3.13437   0.00001   0.00000   0.00024   0.00025   3.13463
   D49        3.13646   0.00013   0.00000   0.00463   0.00460   3.14107
   D50       -0.00805   0.00008   0.00000   0.00290   0.00290  -0.00516
   D51        3.14067   0.00002   0.00000   0.00067   0.00066   3.14132
   D52       -0.00333   0.00011   0.00000   0.00288   0.00285  -0.00048
   D53        0.00261   0.00009   0.00000   0.00279   0.00277   0.00537
   D54       -3.14139   0.00017   0.00000   0.00500   0.00496  -3.13643
   D55       -1.03544   0.00066   0.00000   0.01148   0.01145  -1.02399
   D56        1.07498  -0.00003   0.00000   0.00071   0.00074   1.07572
   D57       -3.11278   0.00026   0.00000   0.00544   0.00544  -3.10734
   D58        3.10801   0.00064   0.00000   0.01089   0.01086   3.11887
   D59       -1.06476  -0.00004   0.00000   0.00012   0.00015  -1.06461
   D60        1.03067   0.00025   0.00000   0.00485   0.00485   1.03552
   D61        1.02016  -0.00015   0.00000  -0.00045  -0.00048   1.01968
   D62        3.13057  -0.00084   0.00000  -0.01122  -0.01119   3.11939
   D63       -1.05718  -0.00054   0.00000  -0.00649  -0.00649  -1.06367
   D64        3.12897   0.00041   0.00000   0.02070   0.02068  -3.13354
   D65       -0.03142  -0.00014   0.00000  -0.00454  -0.00431  -0.03573
   D66       -0.00666  -0.00002   0.00000   0.00158   0.00151  -0.00515
   D67        3.11613  -0.00057   0.00000  -0.02366  -0.02347   3.09266
   D68       -1.62675  -0.00079   0.00000  -0.04393  -0.04395  -1.67070
   D69        1.51950  -0.00075   0.00000  -0.04232  -0.04233   1.47717
   D70        1.53177  -0.00026   0.00000  -0.02100  -0.02098   1.51079
   D71       -1.60517  -0.00022   0.00000  -0.01939  -0.01936  -1.62453
         Item               Value     Threshold  Converged?
 Maximum Force            0.021795     0.000450     NO 
 RMS     Force            0.004619     0.000300     NO 
 Maximum Displacement     0.211079     0.001800     NO 
 RMS     Displacement     0.037807     0.001200     NO 
 Predicted change in Energy=-4.376293D-03
 GradGradGradGradGradGradGradGradGradGradGradGradGradGradGradGradGradGrad

                          Input orientation:                          
 ---------------------------------------------------------------------
 Center     Atomic      Atomic             Coordinates (Angstroms)
 Number     Number       Type             X           Y           Z
 ---------------------------------------------------------------------
      1          8           0      -11.913069    8.261741   -6.161062
      2          8           0      -11.609372    5.947800   -6.436982
      3          8           0       -6.438361    5.127611   -6.535587
      4          8           0       -3.736260    6.728144   -7.542859
      5          8           0       -3.535607    6.543527   -5.274158
      6          7           0       -7.064135    9.118490   -5.999276
      7          7           0       -5.788689    8.627857   -6.081667
      8          6           0       -8.192374    8.312167   -6.122669
      9          6           0       -8.010622    6.920042   -6.301332
     10          6           0      -10.555493    7.968131   -6.185324
     11          6           0       -9.508614    8.846107   -6.071749
     12          6           0      -10.367310    6.582885   -6.352306
     13          6           0       -9.114508    6.046036   -6.415259
     14          6           0       -7.112907   10.592978   -5.870005
     15          6           0       -6.669252    6.347446   -6.383196
     16          6           0       -5.614050    7.340710   -6.251507
     17          6           0      -12.639037    6.985061   -6.314175
     18          6           0       -7.202228   11.288649   -7.234610
     19          6           0       -4.201562    6.834827   -6.258468
     20          1           0       -9.701336    9.898695   -5.952721
     21          1           0       -8.921670    4.991239   -6.547012
     22          1           0       -7.949944   10.866098   -5.222256
     23          1           0       -6.188433   10.866685   -5.358859
     24          1           0      -13.248582    7.018782   -7.220914
     25          1           0      -13.249854    6.804367   -5.425797
     26          1           0       -6.339035   11.011643   -7.847212
     27          1           0       -8.114784   11.005929   -7.769436
     28          1           0       -7.201052   12.376191   -7.100394
     29          1           0       -2.810419    6.354052   -7.528697
 ---------------------------------------------------------------------
                    Distance matrix (angstroms):
                    1          2          3          4          5
     1  O    0.000000
     2  O    2.350039   0.000000
     3  O    6.319452   5.236582   0.000000
     4  O    8.433356   7.988604   3.298128   0.000000
     5  O    8.597716   8.178798   3.467275   2.285028   0.000000
     6  N    4.926698   5.559140   4.075087   4.378487   4.427950
     7  N    6.135827   6.417890   3.588849   3.155386   3.173781
     8  C    3.721235   4.167122   3.659025   4.937917   5.053072
     9  C    4.129035   3.730236   2.395765   4.455152   4.606800
    10  C    1.389175   2.292538   5.014182   7.062748   7.220701
    11  C    2.476058   3.598161   4.844462   6.322184   6.450957
    12  C    2.290087   1.397577   4.193812   6.738646   6.916366
    13  C    3.578535   2.496892   2.831916   5.537355   5.716095
    14  C    5.344244   6.489788   5.546913   5.397882   5.436006
    15  C    5.586724   4.956551   1.250812   3.176821   3.329886
    16  C    6.366641   6.157799   2.378654   2.359856   2.431180
    17  C    1.476613   1.466697   6.476691   8.990835   9.173278
    18  C    5.701465   6.970208   6.247440   5.736389   6.309014
    19  C    7.843017   7.462864   2.827481   1.370236   1.223609
    20  H    2.759490   4.414146   5.809474   6.939962   7.052221
    21  H    4.449001   2.854971   2.487077   5.558509   5.747994
    22  H    4.834293   6.249530   6.077824   6.345312   6.178485
    23  H    6.340403   7.398943   5.863797   5.283042   5.072904
    24  H    2.109936   2.109161   7.101079   9.522205   9.917541
    25  H    2.109869   2.108882   7.102083   9.746601   9.718931
    26  H    6.440102   7.443635   6.029267   5.021498   5.868891
    27  H    4.954231   6.290648   6.235976   6.125542   6.863549
    28  H    6.325673   7.822890   7.310445   6.640858   7.126752
    29  H    9.400422   8.875723   3.956309   0.998663   2.375867
                    6          7          8          9         10
     6  N    0.000000
     7  N    1.369040   0.000000
     8  C    1.392230   2.424674   0.000000
     9  C    2.412519   2.811026   1.415262   0.000000
    10  C    3.680696   4.813357   2.388853   2.754691   0.000000
    11  C    2.460675   3.726335   1.421328   2.450799   1.371020
    12  C    4.179101   5.021845   2.788099   2.381230   1.407907
    13  C    3.717128   4.223524   2.463999   1.412597   2.413247
    14  C    1.480948   2.379086   2.535979   3.805574   4.340582
    15  C    2.825245   2.463044   2.499581   1.460767   4.215287
    16  C    2.308001   1.309998   2.758276   2.433722   4.981556
    17  C    5.977476   7.048412   4.644427   4.628890   2.307420
    18  C    2.500941   3.226016   3.328099   4.539739   4.834379
    19  C    3.671052   2.401081   4.257647   3.810254   6.454624
    20  H    2.750585   4.115880   2.196115   3.442735   2.123856
    21  H    4.559019   4.822563   3.426442   2.147242   3.414980
    22  H    2.107736   3.227898   2.718837   4.091386   4.014299
    23  H    2.057468   2.386335   3.335377   4.447990   5.306210
    24  H    6.644438   7.716023   5.333313   5.318986   3.037505
    25  H    6.629265   7.708713   5.323269   5.313144   3.031634
    26  H    2.743113   3.017029   3.700822   4.682429   5.459245
    27  H    2.792805   3.730215   3.158198   4.342885   4.206505
    28  H    3.441486   4.133108   4.295923   5.573461   5.614322
    29  H    5.298617   4.016737   5.897166   5.372976   8.024717
                   11         12         13         14         15
    11  C    0.000000
    12  C    2.436851   0.000000
    13  C    2.848459   1.364436   0.000000
    14  C    2.971813   5.186965   4.997839   0.000000
    15  C    3.795034   3.705674   2.463971   4.299388   0.000000
    16  C    4.179254   4.814348   3.735800   3.601301   1.455117
    17  C    3.649906   2.307367   3.648876   6.614565   6.004136
    18  C    3.554950   5.739374   5.640314   1.534301   5.042267
    19  C    5.678461   6.171607   4.978335   4.769752   2.518450
    20  H    1.076686   3.405552   3.924448   2.681201   4.689373
    21  H    3.928153   2.158964   1.080343   5.925323   2.634297
    22  H    2.689137   5.046443   5.100241   1.093071   4.837992
    23  H    3.951525   6.066373   5.737295   1.091255   4.658752
    24  H    4.318224   3.040759   4.322717   7.228164   6.666337
    25  H    4.310781   3.035874   4.319165   7.225857   6.665562
    26  H    4.229426   6.170546   5.866088   2.164140   4.899706
    27  H    3.080541   5.161923   5.237727   2.186806   5.070768
    28  H    4.341019   6.644337   6.648427   2.168288   6.094502
    29  H    7.293755   7.651331   6.409068   6.263478   4.025271
                   16         17         18         19         20
    16  C    0.000000
    17  C    7.034264   0.000000
    18  C    4.367496   6.994781   0.000000
    19  C    1.500363   8.438997   5.458331   0.000000
    20  H    4.830991   4.153312   3.133808   6.303038   0.000000
    21  H    4.067885   4.224732   6.564042   5.075579   5.004417
    22  H    4.352484   6.184039   2.187966   5.601361   2.129982
    23  H    3.682287   7.588802   2.173539   4.583976   3.691905
    24  H    7.702563   1.093096   7.402050   9.099930   4.741853
    25  H    7.699024   1.093143   7.743020   9.086576   4.737562
    26  H    4.067878   7.632404   1.094127   4.953655   4.016568
    27  H    4.689522   6.225274   1.094865   5.915609   2.653972
    28  H    5.347454   7.697669   1.095793   6.357083   3.702237
    29  H    3.234973   9.923456   6.612467   1.944197   7.907777
                   21         22         23         24         25
    21  H    0.000000
    22  H    6.100262   0.000000
    23  H    6.588107   1.766799   0.000000
    24  H    4.825686   6.846316   8.253442   0.000000
    25  H    4.824700   6.680429   8.146813   1.807877   0.000000
    26  H    6.678757   3.083278   2.497117   8.004813   8.445344
    27  H    6.190467   2.556335   3.088866   6.523351   7.036669
    28  H    7.602912   2.523613   2.517330   8.080159   8.392705
    29  H    6.337851   7.217544   6.040119  10.463835  10.658648
                   26         27         28         29
    26  H    0.000000
    27  H    1.777460   0.000000
    28  H    1.778426   1.777678   0.000000
    29  H    5.851986   7.059335   7.465069   0.000000
 Stoichiometry    C12H10N2O5
 Framework group  C1[X(C12H10N2O5)]
 Deg. of freedom    81
 Full point group                 C1      NOp   1
 Largest Abelian subgroup         C1      NOp   1
 Largest concise Abelian subgroup C1      NOp   1
                         Standard orientation:                         
 ---------------------------------------------------------------------
 Center     Atomic      Atomic             Coordinates (Angstroms)
 Number     Number       Type             X           Y           Z
 ---------------------------------------------------------------------
      1          8           0        4.076688    0.575569   -0.111730
      2          8           0        3.749934   -1.734909    0.166853
      3          8           0       -1.428579   -2.512102    0.194521
      4          8           0       -4.131317   -0.886177    1.158483
      5          8           0       -4.301325   -1.076264   -1.112269
      6          7           0       -0.762195    1.471772   -0.344929
      7          7           0       -2.042705    0.991939   -0.279168
      8          6           0        0.357457    0.656563   -0.203092
      9          6           0        0.161653   -0.733447   -0.022814
     10          6           0        2.716517    0.293245   -0.105854
     11          6           0        1.678669    1.179465   -0.236936
     12          6           0        2.514506   -1.089870    0.062631
     13          6           0        1.256528   -1.616167    0.109418
     14          6           0       -0.699371    2.945395   -0.477956
     15          6           0       -1.185444   -1.294699    0.041732
     16          6           0       -2.230402   -0.293184   -0.107930
     17          6           0        4.789802   -0.706569    0.055537
     18          6           0       -0.623631    3.644592    0.885667
     19          6           0       -3.646993   -0.787374   -0.119490
     20          1           0        1.881780    2.230048   -0.356402
     21          1           0        1.053103   -2.668918    0.241612
     22          1           0        0.148997    3.209563   -1.114581
     23          1           0       -1.614207    3.225109   -1.003001
     24          1           0        5.386695   -0.675026    0.970732
     25          1           0        5.411627   -0.895087   -0.823529
     26          1           0       -1.497685    3.376643    1.486789
     27          1           0        0.278879    3.356038    1.434247
     28          1           0       -0.613886    4.731679    0.748157
     29          1           0       -5.059935   -1.252662    1.132311
 ---------------------------------------------------------------------
 Rotational constants (GHZ):      0.6716106      0.2448521      0.1887438
 Standard basis: 3-21G (6D, 7F)
 There are   191 symmetry adapted cartesian basis functions of A   symmetry.
 There are   191 symmetry adapted basis functions of A   symmetry.
   191 basis functions,   315 primitive gaussians,   191 cartesian basis functions
    68 alpha electrons       68 beta electrons
       nuclear repulsion energy      1407.8026625906 Hartrees.
 NAtoms=   29 NActive=   29 NUniq=   29 SFac= 1.00D+00 NAtFMM=   60 NAOKFM=F Big=F
 Integral buffers will be    131072 words long.
 Raffenetti 2 integral format.
 Two-electron integral symmetry is turned on.
 One-electron integrals computed using PRISM.
 PrsmSu:  requested number of processors reduced to:   9 ShMem   1 Linda.
 NBasis=   191 RedAO= T EigKep=  1.27D-03  NBF=   191
 NBsUse=   191 1.00D-06 EigRej= -1.00D+00 NBFU=   191
 Initial guess from the checkpoint file:  "/tmp/scratch/63988.prometeo/Gau-11279.chk"
[...]
                 (A) (A) (A) (A) (A) (A) (A) (A) (A) (A) (A) (A)
                 (A) (A) (A) (A) (A) (A) (A) (A) (A) (A) (A) (A)
                 (A) (A) (A) (A) (A) (A) (A) (A) (A) (A) (A) (A)
                 (A) (A) (A) (A) (A) (A) (A) (A)
       Virtual   (A) (A) (A) (A) (A) (A) (A) (A) (A) (A) (A) (A)
                 (A) (A) (A) (A) (A) (A) (A) (A) (A) (A) (A) (A)
                 (A) (A) (A) (A) (A) (A) (A) (A) (A) (A) (A) (A)
                 (A) (A) (A) (A) (A) (A) (A) (A) (A) (A) (A) (A)
                 (A) (A) (A) (A) (A) (A) (A) (A) (A) (A) (A) (A)
                 (A) (A) (A) (A) (A) (A) (A) (A) (A) (A) (A) (A)
                 (A) (A) (A) (A) (A) (A) (A) (A) (A) (A) (A) (A)
                 (A) (A) (A) (A) (A) (A) (A) (A) (A) (A) (A) (A)
                 (A) (A) (A) (A) (A) (A) (A) (A) (A) (A) (A) (A)
                 (A) (A) (A) (A) (A) (A) (A) (A) (A) (A) (A) (A)
                 (A) (A) (A)
 The electronic state is 1-A.
 Alpha  occ. eigenvalues --  -19.11266 -19.10633 -19.06843 -19.01687 -19.00862
 Alpha  occ. eigenvalues --  -14.36564 -14.32358 -10.27008 -10.25296 -10.22530
 Alpha  occ. eigenvalues --  -10.21538 -10.21157 -10.20849 -10.18875 -10.18299
 Alpha  occ. eigenvalues --  -10.16410 -10.15792 -10.15186 -10.13548  -1.14039
 Alpha  occ. eigenvalues --   -1.09412  -1.07144  -1.05288  -1.02505  -1.00479
 Alpha  occ. eigenvalues --   -0.90990  -0.88221  -0.81066  -0.78906  -0.77494
 Alpha  occ. eigenvalues --   -0.72877  -0.70069  -0.67517  -0.66347  -0.62830
 Alpha  occ. eigenvalues --   -0.61849  -0.59593  -0.55756  -0.54106  -0.53574
 Alpha  occ. eigenvalues --   -0.52210  -0.49570  -0.48720  -0.48279  -0.48093
 Alpha  occ. eigenvalues --   -0.46235  -0.45260  -0.44508  -0.43592  -0.43293
 Alpha  occ. eigenvalues --   -0.42765  -0.40362  -0.40098  -0.39586  -0.38348
 Alpha  occ. eigenvalues --   -0.37930  -0.37480  -0.37277  -0.36769  -0.36601
 Alpha  occ. eigenvalues --   -0.33974  -0.30742  -0.28962  -0.27296  -0.25690
 Alpha  occ. eigenvalues --   -0.25436  -0.22825  -0.21689
 Alpha virt. eigenvalues --   -0.06860  -0.04038  -0.00009   0.03865   0.06463
 Alpha virt. eigenvalues --    0.08541   0.09926   0.11032   0.11251   0.11596
 Alpha virt. eigenvalues --    0.12147   0.13583   0.13761   0.15666   0.15999
 Alpha virt. eigenvalues --    0.16601   0.17400   0.18332   0.19037   0.19976
 Alpha virt. eigenvalues --    0.21637   0.22626   0.22809   0.25995   0.26584
 Alpha virt. eigenvalues --    0.28418   0.30340   0.31662   0.34137   0.38202
 Alpha virt. eigenvalues --    0.38935   0.42503   0.43442   0.50864   0.53488
 Alpha virt. eigenvalues --    0.59382   0.60247   0.62939   0.63913   0.65609
 Alpha virt. eigenvalues --    0.67278   0.67763   0.68283   0.69706   0.69893
 Alpha virt. eigenvalues --    0.71943   0.72709   0.73148   0.74085   0.74294
 Alpha virt. eigenvalues --    0.75166   0.75844   0.76944   0.77702   0.79315
 Alpha virt. eigenvalues --    0.80297   0.81735   0.82700   0.85434   0.87008
 Alpha virt. eigenvalues --    0.87402   0.88803   0.91366   0.91607   0.95806
 Alpha virt. eigenvalues --    0.96614   0.97004   0.98943   1.00163   1.00844
 Alpha virt. eigenvalues --    1.03962   1.04300   1.05965   1.07642   1.08667
 Alpha virt. eigenvalues --    1.11704   1.15278   1.16746   1.19841   1.21995
 Alpha virt. eigenvalues --    1.24615   1.28422   1.30924   1.35903   1.37500
 Alpha virt. eigenvalues --    1.40231   1.43826   1.44209   1.46388   1.47690
 Alpha virt. eigenvalues --    1.48954   1.49664   1.51677   1.54271   1.56214
 Alpha virt. eigenvalues --    1.57344   1.60954   1.62034   1.62714   1.63971
 Alpha virt. eigenvalues --    1.66293   1.68641   1.69909   1.71970   1.73521
 Alpha virt. eigenvalues --    1.80285   1.86077   1.87070   1.89154   1.93889
 Alpha virt. eigenvalues --    1.96497   2.03547   2.05559   2.16168   2.18149
 Alpha virt. eigenvalues --    2.39429   2.67111   2.98947   3.13906   3.26989
 Alpha virt. eigenvalues --    3.42440   3.47446   3.63548
          Condensed to atoms (all electrons):
               1          2          3          4          5          6
     1  O    8.244143  -0.031334   0.000000   0.000000   0.000000  -0.000001
     2  O   -0.031334   8.240970   0.000000   0.000000   0.000000   0.000000
     3  O    0.000000   0.000000   8.078017  -0.002000  -0.000001  -0.000014
     4  O    0.000000   0.000000  -0.002000   8.250426  -0.062606  -0.000002
     5  O    0.000000   0.000000  -0.000001  -0.062606   8.109108   0.000045
     6  N   -0.000001   0.000000  -0.000014  -0.000002   0.000045   7.286085
     7  N    0.000000   0.000000   0.000999   0.000889   0.002619   0.229082
     8  C    0.002607  -0.000200   0.003817  -0.000003  -0.000005   0.145443
     9  C   -0.000262   0.002574  -0.126629   0.000142  -0.000014  -0.034033
    10  C    0.239394  -0.055147  -0.000007   0.000000   0.000000   0.005220
    11  C   -0.042410   0.004604   0.000002   0.000000   0.000000  -0.049092
    12  C   -0.058651   0.231628   0.000757   0.000000   0.000000  -0.000394
    13  C    0.004857  -0.044245   0.004477   0.000000   0.000000   0.005095
    14  C    0.000000   0.000000   0.000000   0.000000  -0.000001   0.236164
    15  C    0.000000  -0.000006   0.609923   0.004874   0.002075  -0.033781
    16  C    0.000000   0.000000  -0.097118  -0.096545  -0.097024  -0.072832
    17  C    0.241610   0.251290   0.000000   0.000000   0.000000   0.000000
    18  C    0.000000   0.000000   0.000000   0.000000   0.000000  -0.055793
    19  C    0.000000   0.000000  -0.000300   0.210341   0.526566   0.006128
    20  H   -0.001504  -0.000002   0.000000   0.000000   0.000000  -0.006595
    21  H   -0.000001  -0.001346   0.015876   0.000001   0.000000  -0.000011
    22  H    0.000000   0.000000   0.000000   0.000000   0.000000  -0.034055
    23  H    0.000000   0.000000   0.000000   0.000000   0.000005  -0.031097
    24  H   -0.029556  -0.030535   0.000000   0.000000   0.000000   0.000000
    25  H   -0.030096  -0.031010   0.000000   0.000000   0.000000   0.000000
    26  H    0.000000   0.000000   0.000000   0.000000   0.000000  -0.001755
    27  H    0.000000   0.000000   0.000000   0.000000   0.000000  -0.001922
    28  H    0.000000   0.000000   0.000000   0.000000   0.000000   0.002607
    29  H    0.000000   0.000000   0.000348   0.235698   0.004511   0.000001
               7          8          9         10         11         12
     1  O    0.000000   0.002607  -0.000262   0.239394  -0.042410  -0.058651
     2  O    0.000000  -0.000200   0.002574  -0.055147   0.004604   0.231628
     3  O    0.000999   0.003817  -0.126629  -0.000007   0.000002   0.000757
     4  O    0.000889  -0.000003   0.000142   0.000000   0.000000   0.000000
     5  O    0.002619  -0.000005  -0.000014   0.000000   0.000000   0.000000
     6  N    0.229082   0.145443  -0.034033   0.005220  -0.049092  -0.000394
     7  N    6.944066  -0.041455  -0.010787  -0.000033   0.001607  -0.000006
     8  C   -0.041455   5.139417   0.289973  -0.029171   0.332783  -0.041803
     9  C   -0.010787   0.289973   6.013197  -0.049257  -0.044159  -0.051214
    10  C   -0.000033  -0.029171  -0.049257   5.289177   0.312898   0.127685
    11  C    0.001607   0.332783  -0.044159   0.312898   5.376806  -0.030463
    12  C   -0.000006  -0.041803  -0.051214   0.127685  -0.030463   5.392795
    13  C   -0.000049  -0.062764   0.322951  -0.021510  -0.043205   0.231326
    14  C   -0.072359  -0.063428   0.001257   0.000194   0.000485   0.000000
    15  C   -0.038303   0.008170  -0.042012  -0.001013   0.005844   0.011398
    16  C    0.342636  -0.026711  -0.175421  -0.000008  -0.000698  -0.000084
    17  C    0.000000  -0.000191  -0.000187  -0.086628   0.005509  -0.089645
    18  C    0.000278   0.000052  -0.000045   0.000005  -0.001287  -0.000001
    19  C   -0.088896  -0.001804   0.006702   0.000000  -0.000004   0.000000
    20  H    0.000002  -0.044787   0.003986  -0.044187   0.384979   0.005208
    21  H   -0.000011   0.003002  -0.053293   0.004535  -0.000447  -0.033863
    22  H    0.002896   0.000541   0.000122   0.000029   0.000590  -0.000003
    23  H    0.010355   0.003997  -0.000093  -0.000004  -0.000071   0.000000
    24  H    0.000000   0.000001   0.000002   0.002062  -0.000041   0.002293
    25  H    0.000000   0.000001   0.000002   0.002063  -0.000034   0.002298
    26  H    0.003521   0.000335  -0.000007   0.000001  -0.000035   0.000000
    27  H   -0.000065   0.001898  -0.000023  -0.000031   0.001817   0.000001
    28  H   -0.000023  -0.000018   0.000000   0.000000  -0.000007   0.000000
    29  H   -0.000087   0.000000   0.000007   0.000000   0.000000   0.000000
              13         14         15         16         17         18
     1  O    0.004857   0.000000   0.000000   0.000000   0.241610   0.000000
     2  O   -0.044245   0.000000  -0.000006   0.000000   0.251290   0.000000
     3  O    0.004477   0.000000   0.609923  -0.097118   0.000000   0.000000
     4  O    0.000000   0.000000   0.004874  -0.096545   0.000000   0.000000
     5  O    0.000000  -0.000001   0.002075  -0.097024   0.000000   0.000000
     6  N    0.005095   0.236164  -0.033781  -0.072832   0.000000  -0.055793
     7  N   -0.000049  -0.072359  -0.038303   0.342636   0.000000   0.000278
     8  C   -0.062764  -0.063428   0.008170  -0.026711  -0.000191   0.000052
     9  C    0.322951   0.001257  -0.042012  -0.175421  -0.000187  -0.000045
    10  C   -0.021510   0.000194  -0.001013  -0.000008  -0.086628   0.000005
    11  C   -0.043205   0.000485   0.005844  -0.000698   0.005509  -0.001287
    12  C    0.231326   0.000000   0.011398  -0.000084  -0.089645  -0.000001
    13  C    5.469701  -0.000068  -0.075458   0.013015   0.004778   0.000003
    14  C   -0.000068   5.217308  -0.000221   0.003912   0.000000   0.266309
    15  C   -0.075458  -0.000221   5.336581  -0.128123   0.000001  -0.000005
    16  C    0.013015   0.003912  -0.128123   6.154068   0.000000   0.000001
    17  C    0.004778   0.000000   0.000001   0.000000   4.951289   0.000000
    18  C    0.000003   0.266309  -0.000005   0.000001   0.000000   5.359550
    19  C   -0.000015  -0.000032  -0.062100   0.024666   0.000000   0.000005
    20  H   -0.000647   0.001856   0.000002   0.000005  -0.000105  -0.000188
    21  H    0.375775   0.000000   0.000166   0.001172  -0.000077   0.000000
    22  H   -0.000002   0.356564   0.000019  -0.000133   0.000000  -0.048292
    23  H    0.000001   0.363523   0.000041   0.000132   0.000000  -0.040473
    24  H   -0.000032   0.000000   0.000000   0.000000   0.324777   0.000000
    25  H   -0.000026   0.000000   0.000000   0.000000   0.323505   0.000000
    26  H    0.000000  -0.041323   0.000011  -0.000015   0.000000   0.366092
    27  H   -0.000002  -0.040446  -0.000001   0.000009   0.000000   0.366121
    28  H    0.000000  -0.035223   0.000000  -0.000001   0.000000   0.353490
    29  H    0.000000   0.000000  -0.000269   0.011002   0.000000   0.000000
              19         20         21         22         23         24
     1  O    0.000000  -0.001504  -0.000001   0.000000   0.000000  -0.029556
     2  O    0.000000  -0.000002  -0.001346   0.000000   0.000000  -0.030535
     3  O   -0.000300   0.000000   0.015876   0.000000   0.000000   0.000000
     4  O    0.210341   0.000000   0.000001   0.000000   0.000000   0.000000
     5  O    0.526566   0.000000   0.000000   0.000000   0.000005   0.000000
     6  N    0.006128  -0.006595  -0.000011  -0.034055  -0.031097   0.000000
     7  N   -0.088896   0.000002  -0.000011   0.002896   0.010355   0.000000
     8  C   -0.001804  -0.044787   0.003002   0.000541   0.003997   0.000001
     9  C    0.006702   0.003986  -0.053293   0.000122  -0.000093   0.000002
    10  C    0.000000  -0.044187   0.004535   0.000029  -0.000004   0.002062
    11  C   -0.000004   0.384979  -0.000447   0.000590  -0.000071  -0.000041
    12  C    0.000000   0.005208  -0.033863  -0.000003   0.000000   0.002293
    13  C   -0.000015  -0.000647   0.375775  -0.000002   0.000001  -0.000032
    14  C   -0.000032   0.001856   0.000000   0.356564   0.363523   0.000000
    15  C   -0.062100   0.000002   0.000166   0.000019   0.000041   0.000000
    16  C    0.024666   0.000005   0.001172  -0.000133   0.000132   0.000000
    17  C    0.000000  -0.000105  -0.000077   0.000000   0.000000   0.324777
    18  C    0.000005  -0.000188   0.000000  -0.048292  -0.040473   0.000000
    19  C    4.715890   0.000000   0.000000  -0.000001  -0.000053   0.000000
    20  H    0.000000   0.480386   0.000002   0.002691   0.000041   0.000000
    21  H    0.000000   0.000002   0.447150   0.000000   0.000000   0.000000
    22  H   -0.000001   0.002691   0.000000   0.525778  -0.021447   0.000000
    23  H   -0.000053   0.000041   0.000000  -0.021447   0.458471   0.000000
    24  H    0.000000   0.000000   0.000000   0.000000   0.000000   0.552376
    25  H    0.000000   0.000000   0.000000   0.000000   0.000000  -0.055860
    26  H   -0.000013  -0.000015   0.000000   0.003429  -0.002082   0.000000
    27  H    0.000000   0.001212   0.000000  -0.002936   0.002835   0.000000
    28  H    0.000000   0.000039   0.000000   0.000132  -0.000598   0.000000
    29  H   -0.026429   0.000000   0.000000   0.000000   0.000000   0.000000
              25         26         27         28         29
     1  O   -0.030096   0.000000   0.000000   0.000000   0.000000
     2  O   -0.031010   0.000000   0.000000   0.000000   0.000000
     3  O    0.000000   0.000000   0.000000   0.000000   0.000348
     4  O    0.000000   0.000000   0.000000   0.000000   0.235698
     5  O    0.000000   0.000000   0.000000   0.000000   0.004511
     6  N    0.000000  -0.001755  -0.001922   0.002607   0.000001
     7  N    0.000000   0.003521  -0.000065  -0.000023  -0.000087
     8  C    0.000001   0.000335   0.001898  -0.000018   0.000000
     9  C    0.000002  -0.000007  -0.000023   0.000000   0.000007
    10  C    0.002063   0.000001  -0.000031   0.000000   0.000000
    11  C   -0.000034  -0.000035   0.001817  -0.000007   0.000000
    12  C    0.002298   0.000000   0.000001   0.000000   0.000000
    13  C   -0.000026   0.000000  -0.000002   0.000000   0.000000
    14  C    0.000000  -0.041323  -0.040446  -0.035223   0.000000
    15  C    0.000000   0.000011  -0.000001   0.000000  -0.000269
    16  C    0.000000  -0.000015   0.000009  -0.000001   0.011002
    17  C    0.323505   0.000000   0.000000   0.000000   0.000000
    18  C    0.000000   0.366092   0.366121   0.353490   0.000000
    19  C    0.000000  -0.000013   0.000000   0.000000  -0.026429
    20  H    0.000000  -0.000015   0.001212   0.000039   0.000000
    21  H    0.000000   0.000000   0.000000   0.000000   0.000000
    22  H    0.000000   0.003429  -0.002936   0.000132   0.000000
    23  H    0.000000  -0.002082   0.002835  -0.000598   0.000000
    24  H   -0.055860   0.000000   0.000000   0.000000   0.000000
    25  H    0.554841   0.000000   0.000000   0.000000   0.000000
    26  H    0.000000   0.495688  -0.025163  -0.022870   0.000000
    27  H    0.000000  -0.025163   0.515209  -0.024802   0.000000
    28  H    0.000000  -0.022870  -0.024802   0.525527   0.000000
    29  H    0.000000   0.000000   0.000000   0.000000   0.414614
 Mulliken charges:
               1
     1  O   -0.538796
     2  O   -0.537243
     3  O   -0.488148
     4  O   -0.541213
     5  O   -0.485278
     6  N   -0.594491
     7  N   -0.286875
     8  C    0.380300
     9  C   -0.053476
    10  C    0.303735
    11  C   -0.215970
    12  C    0.300738
    13  C   -0.183954
    14  C   -0.194472
    15  C    0.402187
    16  C    0.144096
    17  C    0.074074
    18  C   -0.565823
    19  C    0.689348
    20  H    0.217624
    21  H    0.241370
    22  H    0.214079
    23  H    0.256516
    24  H    0.234513
    25  H    0.234317
    26  H    0.224201
    27  H    0.206291
    28  H    0.201746
    29  H    0.360604
 Sum of Mulliken charges =   0.00000
 Mulliken charges with hydrogens summed into heavy atoms:
               1
     1  O   -0.538796
     2  O   -0.537243
     3  O   -0.488148
     4  O   -0.180610
     5  O   -0.485278
     6  N   -0.594491
     7  N   -0.286875
     8  C    0.380300
     9  C   -0.053476
    10  C    0.303735
    11  C    0.001654
    12  C    0.300738
    13  C    0.057416
    14  C    0.276123
    15  C    0.402187
    16  C    0.144096
    17  C    0.542904
    18  C    0.066414
    19  C    0.689348
 Electronic spatial extent (au):  <R**2>=           5478.0098
 Charge=              0.0000 electrons
 Dipole moment (field-independent basis, Debye):
    X=              5.0157    Y=              3.5775    Z=             -0.1343  Tot=              6.1623
 Quadrupole moment (field-independent basis, Debye-Ang):
   XX=            -98.0119   YY=           -106.4161   ZZ=           -107.0848
   XY=              2.1637   XZ=             -1.1205   YZ=              0.4075
 Traceless Quadrupole moment (field-independent basis, Debye-Ang):
   XX=              5.8257   YY=             -2.5785   ZZ=             -3.2472
   XY=              2.1637   XZ=             -1.1205   YZ=              0.4075
 Octapole moment (field-independent basis, Debye-Ang**2):
  XXX=             99.6023  YYY=             50.9305  ZZZ=              1.4702  XYY=            -15.3739
  XXY=            -75.1193  XXZ=              9.6937  XZZ=             -5.9583  YZZ=             -3.7496
  YYZ=             -5.4030  XYZ=             -0.2598
 Hexadecapole moment (field-independent basis, Debye-Ang**3):
 XXXX=          -4028.8252 YYYY=          -1838.1167 ZZZZ=           -181.5157 XXXY=            241.2209
 XXXZ=            -36.9944 YYYX=              6.3421 YYYZ=            -10.8179 ZZZX=              1.0726
 ZZZY=             -6.1562 XXYY=          -1088.8886 XXZZ=           -785.9661 YYZZ=           -344.0979
 XXYZ=              8.2279 YYXZ=             -0.1184 ZZXY=              4.9356
 N-N= 1.409524317900D+03 E-N=-5.021764797963D+03  KE= 9.359772867299D+02
 1\1\GINC-NODE038\FOpt\RB3LYP\3-21G\C12H10N2O5\SUPERCOMPUTO1\06-Jul-202
 0\0\\# opt b3lyp/3-21g geom=connectivity\\Title Card Required\\0,1\O,-
 11.90423286,8.2713803864,-6.1069432516\O,-11.5928965923,5.9541316602,-
 6.5449022437\O,-6.4925634464,5.1466790755,-6.7721815752\O,-3.911456855
 2,5.706681736,-6.7316859052\O,-3.2159889729,7.8411665334,-6.3301595199
 \N,-7.0584909449,9.1126940933,-6.0005724887\N,-5.7937169856,8.63552706
 02,-6.1264427199\C,-8.1881352047,8.3136294212,-6.1465233241\C,-7.99952
 07327,6.9428569104,-6.409338666\C,-10.54698524,7.9705899404,-6.1796446
 783\C,-9.4996370514,8.84229284,-6.0319896399\C,-10.3557239911,6.602351
 9312,-6.4384539207\C,-9.1019768462,6.0742921192,-6.5564640537\C,-7.111
 0203202,10.5827428546,-5.7891347834\C,-6.6501120273,6.3606389066,-6.54
 18855128\C,-5.5835157493,7.3581524531,-6.3752268867\C,-12.620773071,6.
 9890126498,-6.3272613133\C,-7.275409225,11.3377518285,-7.1197463395\C,
 -4.1331559478,7.0362832504,-6.4675853931\H,-9.686619,9.88639767,-5.839
 6743346\H,-8.9058227601,5.0305956187,-6.7558744291\H,-7.9218879699,10.
 8055367524,-5.0915391786\H,-6.1594142608,10.8319167187,-5.3196461003\H
 ,-13.241897894,7.0794985671,-7.2189376374\H,-13.1977867223,6.748405427
 ,-5.4335545857\H,-6.4339372723,11.1002923296,-7.7765909117\H,-8.206185
 3196,11.0563740019,-7.6214614764\H,-7.2868857129,12.4170031786,-6.9353
 555631\H,-2.9228110241,5.5790140858,-6.7767135678\\Version=ES64L-G09Re
 vD.01\State=1-A\HF=-943.6492877\RMSD=3.414e-09\RMSF=1.899e-05\Dipole=-
 1.9832877,1.3824275,0.1827339\Quadrupole=4.3143516,-1.912824,-2.401527
 6,-1.501123,-1.0823912,-0.2454257\PG=C01 [X(C12H10N2O5)]\\@


 NATURE GIVES TO EVERY TIME AND SEASON SOME BEAUTY OF ITS OWN.

                                                    --DICKENS
 Job cpu time:       0 days  0 hours 51 minutes 35.3 seconds.
 File lengths (MBytes):  RWF=     25 Int=      0 D2E=      0 Chk=      4 Scr=      1
 Normal termination of Gaussian 09 at Mon Jul  6 19:08:53 2020.
