 Entering Gaussian System, Link 0=g09
 Input=acido_nalidixico.gjf
 Output=acido_nalidixico.log
 Initial command:
 /usr/local/cluster_programs/g09/l1.exe "/tmp/scratch/64747.prometeo/Gau-30688.inp" -scrdir="/tmp/scratch/64747.prometeo/"
 Entering Link 1 = /usr/local/cluster_programs/g09/l1.exe PID=     30689.
  
 Copyright (c) 1988,1990,1992,1993,1995,1998,2003,2009,2013,
            Gaussian, Inc.  All Rights Reserved.
  
 This is part of the Gaussian(R) 09 program.  It is based on
 the Gaussian(R) 03 system (copyright 2003, Gaussian, Inc.),
 the Gaussian(R) 98 system (copyright 1998, Gaussian, Inc.),
 the Gaussian(R) 94 system (copyright 1995, Gaussian, Inc.),
 the Gaussian 92(TM) system (copyright 1992, Gaussian, Inc.),
 the Gaussian 90(TM) system (copyright 1990, Gaussian, Inc.),
 the Gaussian 88(TM) system (copyright 1988, Gaussian, Inc.),
 the Gaussian 86(TM) system (copyright 1986, Carnegie Mellon
 University), and the Gaussian 82(TM) system (copyright 1983,
 Carnegie Mellon University). Gaussian is a federally registered
 trademark of Gaussian, Inc.
  
 This software contains proprietary and confidential information,
 including trade secrets, belonging to Gaussian, Inc.
  
 This software is provided under written license and may be
 used, copied, transmitted, or stored only in accord with that
 written license.
  
 The following legend is applicable only to US Government
 contracts under FAR:
  
                    RESTRICTED RIGHTS LEGEND
  
 Use, reproduction and disclosure by the US Government is
 subject to restrictions as set forth in subparagraphs (a)
 and (c) of the Commercial Computer Software - Restricted
 Rights clause in FAR 52.227-19.
  
 Gaussian, Inc.
 340 Quinnipiac St., Bldg. 40, Wallingford CT 06492
  
  
 ---------------------------------------------------------------
 Warning -- This program may not be used in any manner that
 competes with the business of Gaussian, Inc. or will provide
 assistance to any competitor of Gaussian, Inc.  The licensee
 of this program is prohibited from giving any competitor of
 Gaussian, Inc. access to this program.  By using this program,
 the user acknowledges that Gaussian, Inc. is engaged in the
 business of creating and licensing software in the field of
 computational chemistry and represents and warrants to the
 licensee that it is not a competitor of Gaussian, Inc. and that
 it will not use this program in any manner prohibited above.
 ---------------------------------------------------------------
  

 Cite this work as:
 Gaussian 09, Revision D.01,
 M. J. Frisch, G. W. Trucks, H. B. Schlegel, G. E. Scuseria, 
 M. A. Robb, J. R. Cheeseman, G. Scalmani, V. Barone, B. Mennucci, 
 G. A. Petersson, H. Nakatsuji, M. Caricato, X. Li, H. P. Hratchian, 
 A. F. Izmaylov, J. Bloino, G. Zheng, J. L. Sonnenberg, M. Hada, 
 M. Ehara, K. Toyota, R. Fukuda, J. Hasegawa, M. Ishida, T. Nakajima, 
 Y. Honda, O. Kitao, H. Nakai, T. Vreven, J. A. Montgomery, Jr., 
 J. E. Peralta, F. Ogliaro, M. Bearpark, J. J. Heyd, E. Brothers, 
 K. N. Kudin, V. N. Staroverov, T. Keith, R. Kobayashi, J. Normand, 
 K. Raghavachari, A. Rendell, J. C. Burant, S. S. Iyengar, J. Tomasi, 
 M. Cossi, N. Rega, J. M. Millam, M. Klene, J. E. Knox, J. B. Cross, 
 V. Bakken, C. Adamo, J. Jaramillo, R. Gomperts, R. E. Stratmann, 
 O. Yazyev, A. J. Austin, R. Cammi, C. Pomelli, J. W. Ochterski, 
 R. L. Martin, K. Morokuma, V. G. Zakrzewski, G. A. Voth, 
 P. Salvador, J. J. Dannenberg, S. Dapprich, A. D. Daniels, 
 O. Farkas, J. B. Foresman, J. V. Ortiz, J. Cioslowski, 
 and D. J. Fox, Gaussian, Inc., Wallingford CT, 2013.
 
 ******************************************
 Gaussian 09:  ES64L-G09RevD.01 24-Apr-2013
                22-Aug-2020 
 ******************************************
 %nprocshared=20
 Will use up to   20 processors via shared memory.
 -----------------------------------------------------
 #opt M06/lanl2dz integral=ultrafine geom=connectivity
 -----------------------------------------------------
 1/14=-1,18=20,19=15,26=4,38=1,57=2/1,3;
 2/9=110,12=2,17=6,18=5,40=1/2;
 3/5=6,6=3,11=2,16=1,25=1,30=1,71=1,74=-54,75=-5/1,2,3;
 4//1;
 5/5=2,38=5/2;
 6/7=2,8=2,9=2,10=2,28=1/1;
 7//1,2,3,16;
 1/14=-1,18=20,19=15,26=4/3(2);
 2/9=110/2;
 99//99;
 2/9=110/2;
 3/5=6,6=3,11=2,16=1,25=1,30=1,71=1,74=-54,75=-5/1,2,3;
 4/5=5,16=3,69=1/1;
 5/5=2,38=5/2;
 7//1,2,3,16;
 1/14=-1,18=20,19=15,26=4/3(-5);
 2/9=110/2;
 6/7=2,8=2,9=2,10=2,19=2,28=1/1;
 99/9=1/99;
 -------------------
 Title Card Required
 -------------------
 Symbolic Z-matrix:
 Charge =  0 Multiplicity = 1
 O                    -1.65797  -2.37291   0.22498 
 O                    -3.97448  -1.16389   0.11965 
 O                    -4.00097   1.08635  -0.17351 
 N                     0.13952   1.32387  -0.30824 
 N                     2.28357   0.37218  -0.20079 
 C                     0.94788   0.18961  -0.16071 
 C                     0.34011  -1.07534   0.01702 
 C                     0.75338   2.66808  -0.44152 
 C                    -1.21259   1.19555  -0.25285 
 C                    -1.86887  -0.00339  -0.07941 
 C                    -1.11431  -1.23047   0.06452 
 C                     1.19378  -2.18609   0.15124 
 C                     3.09025  -0.70009  -0.07172 
 C                     1.00396   3.29073   0.93015 
 C                     2.57113  -2.00473   0.10745 
 C                    -3.36385   0.03332  -0.05061 
 C                     4.56542  -0.43732  -0.12965 
 H                     1.69153   2.54776  -0.9867 
 H                     0.06945   3.27855  -1.04038 
 H                    -1.80541   2.10242  -0.35675 
 H                     0.73653  -3.16187   0.2871 
 H                     1.43684   4.28971   0.81953 
 H                     0.07049   3.38182   1.49739 
 H                     1.70411   2.67478   1.50326 
 H                     3.25401  -2.84098   0.20819 
 H                     4.84907   0.28803   0.63987 
 H                     4.83116   0.00212  -1.09697 
 H                     5.14547  -1.35269   0.01361 
 H                    -3.31539  -1.91769   0.20271 
 

 GradGradGradGradGradGradGradGradGradGradGradGradGradGradGradGradGradGrad
 Berny optimization.
 Initialization pass.
                           ----------------------------
                           !    Initial Parameters    !
                           ! (Angstroms and Degrees)  !
 --------------------------                            --------------------------
 ! Name  Definition              Value          Derivative Info.                !
 --------------------------------------------------------------------------------
 ! R1    R(1,11)                 1.2753         estimate D2E/DX2                !
 ! R2    R(2,16)                 1.3547         estimate D2E/DX2                !
 ! R3    R(2,29)                 1.0047         estimate D2E/DX2                !
 ! R4    R(3,16)                 1.2369         estimate D2E/DX2                !
 ! R5    R(4,6)                  1.4006         estimate D2E/DX2                !
 ! R6    R(4,8)                  1.4837         estimate D2E/DX2                !
 ! R7    R(4,9)                  1.3593         estimate D2E/DX2                !
 ! R8    R(5,6)                  1.3487         estimate D2E/DX2                !
 ! R9    R(5,13)                 1.348          estimate D2E/DX2                !
 ! R10   R(6,7)                  1.4146         estimate D2E/DX2                !
 ! R11   R(7,11)                 1.4634         estimate D2E/DX2                !
 ! R12   R(7,12)                 1.4073         estimate D2E/DX2                !
 ! R13   R(8,14)                 1.5271         estimate D2E/DX2                !
 ! R14   R(8,18)                 1.0917         estimate D2E/DX2                !
 ! R15   R(8,19)                 1.095          estimate D2E/DX2                !
 ! R16   R(9,10)                 1.3778         estimate D2E/DX2                !
 ! R17   R(9,20)                 1.0884         estimate D2E/DX2                !
 ! R18   R(10,11)                1.4477         estimate D2E/DX2                !
 ! R19   R(10,16)                1.4957         estimate D2E/DX2                !
 ! R20   R(12,15)                1.3899         estimate D2E/DX2                !
 ! R21   R(12,21)                1.0861         estimate D2E/DX2                !
 ! R22   R(13,15)                1.4155         estimate D2E/DX2                !
 ! R23   R(13,17)                1.4995         estimate D2E/DX2                !
 ! R24   R(14,22)                1.0943         estimate D2E/DX2                !
 ! R25   R(14,23)                1.0961         estimate D2E/DX2                !
 ! R26   R(14,24)                1.0946         estimate D2E/DX2                !
 ! R27   R(15,25)                1.0843         estimate D2E/DX2                !
 ! R28   R(17,26)                1.0949         estimate D2E/DX2                !
 ! R29   R(17,27)                1.0952         estimate D2E/DX2                !
 ! R30   R(17,28)                1.0931         estimate D2E/DX2                !
 ! A1    A(16,2,29)            112.1937         estimate D2E/DX2                !
 ! A2    A(6,4,8)              120.2886         estimate D2E/DX2                !
 ! A3    A(6,4,9)              119.5602         estimate D2E/DX2                !
 ! A4    A(8,4,9)              120.0473         estimate D2E/DX2                !
 ! A5    A(6,5,13)             118.8242         estimate D2E/DX2                !
 ! A6    A(4,6,5)              117.3107         estimate D2E/DX2                !
 ! A7    A(4,6,7)              119.3034         estimate D2E/DX2                !
 ! A8    A(5,6,7)              123.3857         estimate D2E/DX2                !
 ! A9    A(6,7,11)             121.7256         estimate D2E/DX2                !
 ! A10   A(6,7,12)             117.2032         estimate D2E/DX2                !
 ! A11   A(11,7,12)            121.071          estimate D2E/DX2                !
 ! A12   A(4,8,14)             110.8918         estimate D2E/DX2                !
 ! A13   A(4,8,18)             107.49           estimate D2E/DX2                !
 ! A14   A(4,8,19)             107.205          estimate D2E/DX2                !
 ! A15   A(14,8,18)            110.6398         estimate D2E/DX2                !
 ! A16   A(14,8,19)            111.4944         estimate D2E/DX2                !
 ! A17   A(18,8,19)            108.9693         estimate D2E/DX2                !
 ! A18   A(4,9,10)             124.1312         estimate D2E/DX2                !
 ! A19   A(4,9,20)             117.3375         estimate D2E/DX2                !
 ! A20   A(10,9,20)            118.531          estimate D2E/DX2                !
 ! A21   A(9,10,11)            120.1219         estimate D2E/DX2                !
 ! A22   A(9,10,16)            117.2048         estimate D2E/DX2                !
 ! A23   A(11,10,16)           122.6733         estimate D2E/DX2                !
 ! A24   A(1,11,7)             121.5127         estimate D2E/DX2                !
 ! A25   A(1,11,10)            123.3408         estimate D2E/DX2                !
 ! A26   A(7,11,10)            115.1463         estimate D2E/DX2                !
 ! A27   A(7,12,15)            119.6773         estimate D2E/DX2                !
 ! A28   A(7,12,21)            117.7521         estimate D2E/DX2                !
 ! A29   A(15,12,21)           122.5706         estimate D2E/DX2                !
 ! A30   A(5,13,15)            121.7218         estimate D2E/DX2                !
 ! A31   A(5,13,17)            116.4629         estimate D2E/DX2                !
 ! A32   A(15,13,17)           121.8153         estimate D2E/DX2                !
 ! A33   A(8,14,22)            110.2621         estimate D2E/DX2                !
 ! A34   A(8,14,23)            111.0376         estimate D2E/DX2                !
 ! A35   A(8,14,24)            110.2319         estimate D2E/DX2                !
 ! A36   A(22,14,23)           108.26           estimate D2E/DX2                !
 ! A37   A(22,14,24)           108.2766         estimate D2E/DX2                !
 ! A38   A(23,14,24)           108.697          estimate D2E/DX2                !
 ! A39   A(12,15,13)           119.1872         estimate D2E/DX2                !
 ! A40   A(12,15,25)           121.3665         estimate D2E/DX2                !
 ! A41   A(13,15,25)           119.4463         estimate D2E/DX2                !
 ! A42   A(2,16,3)             122.1875         estimate D2E/DX2                !
 ! A43   A(2,16,10)            115.548          estimate D2E/DX2                !
 ! A44   A(3,16,10)            122.2645         estimate D2E/DX2                !
 ! A45   A(13,17,26)           110.1092         estimate D2E/DX2                !
 ! A46   A(13,17,27)           110.0686         estimate D2E/DX2                !
 ! A47   A(13,17,28)           111.7297         estimate D2E/DX2                !
 ! A48   A(26,17,27)           106.9831         estimate D2E/DX2                !
 ! A49   A(26,17,28)           108.9764         estimate D2E/DX2                !
 ! A50   A(27,17,28)           108.8447         estimate D2E/DX2                !
 ! D1    D(29,2,16,3)          179.9839         estimate D2E/DX2                !
 ! D2    D(29,2,16,10)          -0.0415         estimate D2E/DX2                !
 ! D3    D(8,4,6,5)             -2.618          estimate D2E/DX2                !
 ! D4    D(8,4,6,7)            177.5484         estimate D2E/DX2                !
 ! D5    D(9,4,6,5)           -178.9144         estimate D2E/DX2                !
 ! D6    D(9,4,6,7)              1.252          estimate D2E/DX2                !
 ! D7    D(6,4,8,14)           -87.231          estimate D2E/DX2                !
 ! D8    D(6,4,8,18)            33.824          estimate D2E/DX2                !
 ! D9    D(6,4,8,19)           150.8474         estimate D2E/DX2                !
 ! D10   D(9,4,8,14)            89.0473         estimate D2E/DX2                !
 ! D11   D(9,4,8,18)          -149.8977         estimate D2E/DX2                !
 ! D12   D(9,4,8,19)           -32.8743         estimate D2E/DX2                !
 ! D13   D(6,4,9,10)            -1.1429         estimate D2E/DX2                !
 ! D14   D(6,4,9,20)           179.0922         estimate D2E/DX2                !
 ! D15   D(8,4,9,10)          -177.4484         estimate D2E/DX2                !
 ! D16   D(8,4,9,20)             2.7867         estimate D2E/DX2                !
 ! D17   D(13,5,6,4)          -179.523          estimate D2E/DX2                !
 ! D18   D(13,5,6,7)             0.3031         estimate D2E/DX2                !
 ! D19   D(6,5,13,15)           -0.1741         estimate D2E/DX2                !
 ! D20   D(6,5,13,17)          179.757          estimate D2E/DX2                !
 ! D21   D(4,6,7,11)            -0.6218         estimate D2E/DX2                !
 ! D22   D(4,6,7,12)           179.5594         estimate D2E/DX2                !
 ! D23   D(5,6,7,11)           179.5553         estimate D2E/DX2                !
 ! D24   D(5,6,7,12)            -0.2634         estimate D2E/DX2                !
 ! D25   D(6,7,11,1)          -179.998          estimate D2E/DX2                !
 ! D26   D(6,7,11,10)           -0.1491         estimate D2E/DX2                !
 ! D27   D(12,7,11,1)           -0.1863         estimate D2E/DX2                !
 ! D28   D(12,7,11,10)         179.6627         estimate D2E/DX2                !
 ! D29   D(6,7,12,15)            0.0947         estimate D2E/DX2                !
 ! D30   D(6,7,12,21)         -179.9377         estimate D2E/DX2                !
 ! D31   D(11,7,12,15)        -179.7253         estimate D2E/DX2                !
 ! D32   D(11,7,12,21)           0.2423         estimate D2E/DX2                !
 ! D33   D(4,8,14,22)         -178.8013         estimate D2E/DX2                !
 ! D34   D(4,8,14,23)          -58.8123         estimate D2E/DX2                !
 ! D35   D(4,8,14,24)           61.7048         estimate D2E/DX2                !
 ! D36   D(18,8,14,22)          62.0207         estimate D2E/DX2                !
 ! D37   D(18,8,14,23)        -177.9903         estimate D2E/DX2                !
 ! D38   D(18,8,14,24)         -57.4732         estimate D2E/DX2                !
 ! D39   D(19,8,14,22)         -59.4224         estimate D2E/DX2                !
 ! D40   D(19,8,14,23)          60.5667         estimate D2E/DX2                !
 ! D41   D(19,8,14,24)        -178.9162         estimate D2E/DX2                !
 ! D42   D(4,9,10,11)            0.3356         estimate D2E/DX2                !
 ! D43   D(4,9,10,16)         -179.598          estimate D2E/DX2                !
 ! D44   D(20,9,10,11)        -179.9021         estimate D2E/DX2                !
 ! D45   D(20,9,10,16)           0.1643         estimate D2E/DX2                !
 ! D46   D(9,10,11,1)         -179.8463         estimate D2E/DX2                !
 ! D47   D(9,10,11,7)            0.3079         estimate D2E/DX2                !
 ! D48   D(16,10,11,1)           0.0836         estimate D2E/DX2                !
 ! D49   D(16,10,11,7)        -179.7622         estimate D2E/DX2                !
 ! D50   D(9,10,16,2)          179.9107         estimate D2E/DX2                !
 ! D51   D(9,10,16,3)           -0.1147         estimate D2E/DX2                !
 ! D52   D(11,10,16,2)          -0.0211         estimate D2E/DX2                !
 ! D53   D(11,10,16,3)         179.9535         estimate D2E/DX2                !
 ! D54   D(7,12,15,13)           0.0192         estimate D2E/DX2                !
 ! D55   D(7,12,15,25)         179.9833         estimate D2E/DX2                !
 ! D56   D(21,12,15,13)       -179.9468         estimate D2E/DX2                !
 ! D57   D(21,12,15,25)          0.0174         estimate D2E/DX2                !
 ! D58   D(5,13,15,12)           0.0174         estimate D2E/DX2                !
 ! D59   D(5,13,15,25)        -179.9475         estimate D2E/DX2                !
 ! D60   D(17,13,15,12)       -179.91           estimate D2E/DX2                !
 ! D61   D(17,13,15,25)          0.1252         estimate D2E/DX2                !
 ! D62   D(5,13,17,26)          57.0001         estimate D2E/DX2                !
 ! D63   D(5,13,17,27)         -60.7047         estimate D2E/DX2                !
 ! D64   D(5,13,17,28)         178.2451         estimate D2E/DX2                !
 ! D65   D(15,13,17,26)       -123.0689         estimate D2E/DX2                !
 ! D66   D(15,13,17,27)        119.2263         estimate D2E/DX2                !
 ! D67   D(15,13,17,28)         -1.824          estimate D2E/DX2                !
 --------------------------------------------------------------------------------
 Trust Radius=3.00D-01 FncErr=1.00D-07 GrdErr=1.00D-06
 Number of steps in this run=    157 maximum allowed number of steps=    174.
 GradGradGradGradGradGradGradGradGradGradGradGradGradGradGradGradGradGrad

                          Input orientation:                          
 ---------------------------------------------------------------------
 Center     Atomic      Atomic             Coordinates (Angstroms)
 Number     Number       Type             X           Y           Z
 ---------------------------------------------------------------------
      1          8           0       -1.657965   -2.372913    0.224976
      2          8           0       -3.974476   -1.163886    0.119647
      3          8           0       -4.000971    1.086352   -0.173505
      4          7           0        0.139524    1.323874   -0.308243
      5          7           0        2.283570    0.372181   -0.200791
      6          6           0        0.947878    0.189612   -0.160711
      7          6           0        0.340113   -1.075345    0.017020
      8          6           0        0.753380    2.668079   -0.441517
      9          6           0       -1.212588    1.195553   -0.252852
     10          6           0       -1.868867   -0.003386   -0.079414
     11          6           0       -1.114313   -1.230465    0.064518
     12          6           0        1.193775   -2.186091    0.151237
     13          6           0        3.090251   -0.700087   -0.071721
     14          6           0        1.003960    3.290732    0.930154
     15          6           0        2.571132   -2.004731    0.107452
     16          6           0       -3.363848    0.033321   -0.050611
     17          6           0        4.565416   -0.437320   -0.129652
     18          1           0        1.691527    2.547760   -0.986698
     19          1           0        0.069449    3.278553   -1.040378
     20          1           0       -1.805405    2.102423   -0.356748
     21          1           0        0.736533   -3.161869    0.287100
     22          1           0        1.436840    4.289710    0.819526
     23          1           0        0.070492    3.381820    1.497388
     24          1           0        1.704114    2.674779    1.503260
     25          1           0        3.254011   -2.840984    0.208193
     26          1           0        4.849072    0.288028    0.639871
     27          1           0        4.831159    0.002122   -1.096966
     28          1           0        5.145473   -1.352690    0.013611
     29          1           0       -3.315389   -1.917690    0.202712
 ---------------------------------------------------------------------
                    Distance matrix (angstroms):
                    1          2          3          4          5
     1  O    0.000000
     2  O    2.615160   0.000000
     3  O    4.197020   2.269408   0.000000
     4  N    4.145060   4.826700   4.149490   0.000000
     5  N    4.822086   6.451769   6.325049   2.348233   0.000000
     6  C    3.675011   5.112742   5.029455   1.400626   1.348707
     7  C    2.391494   4.316718   4.853271   2.429462   2.433064
     8  C    5.627646   6.111586   5.017723   1.483735   2.769581
     9  C    3.627758   3.651538   2.791648   1.359316   3.592182
    10  C    2.398289   2.412462   2.396299   2.418184   4.171153
    11  C    1.275340   2.861469   3.709055   2.869792   3.766228
    12  C    2.858804   5.268465   6.148148   3.693565   2.802915
    13  C    5.043008   7.082521   7.313491   3.585966   1.348018
    14  C    6.297618   6.729440   5.579130   2.479800   3.381476
    15  C    4.246720   6.599406   7.268168   4.143082   2.414004
    16  C    2.962422   1.354680   1.236892   3.742395   5.659568
    17  C    6.527078   8.574369   8.700947   4.766783   2.422225
    18  H    6.074560   6.863228   5.933088   2.089716   2.387741
    19  H    6.043521   6.118354   4.703779   2.088469   3.748898
    20  H    4.515393   3.949759   2.426209   2.095529   4.442722
    21  H    2.521890   5.119920   6.379928   4.564290   3.888556
    22  H    7.370336   7.714524   6.388850   3.427984   4.135823
    23  H    6.141950   6.238860   4.963655   2.738651   4.103590
    24  H    6.198127   6.992576   6.154887   2.748532   2.922587
    25  H    4.934256   7.421019   8.258597   5.226163   3.381339
    26  H    7.042320   8.957326   8.923125   4.914442   2.701036
    27  H    7.035414   8.965430   8.946220   4.937667   2.725855
    28  H    6.882754   9.122519   9.467913   5.685693   3.348378
    29  H    1.718947   1.004747   3.104163   4.765001   6.062563
                    6          7          8          9         10
     6  C    0.000000
     7  C    1.414596   0.000000
     8  C    2.501895   3.793978   0.000000
     9  C    2.384957   2.764180   2.463525   0.000000
    10  C    2.824519   2.457232   3.760854   1.377765   0.000000
    11  C    2.513957   1.463446   4.352355   2.448662   1.447685
    12  C    2.408680   1.407306   4.910017   4.170058   3.767914
    13  C    2.321475   2.777040   4.116097   4.705389   5.007824
    14  C    3.287868   4.509671   1.527078   3.271447   4.485931
    15  C    2.742628   2.418550   5.043882   4.968720   4.873796
    16  C    4.315962   3.866916   4.903705   2.453488   1.495709
    17  C    3.671592   4.275719   4.926701   6.005563   6.449095
    18  H    2.606939   3.995079   1.091705   3.286469   4.473021
    19  H    3.329716   4.488628   1.095023   2.569573   3.930858
    20  H    3.358250   3.852423   2.621933   1.088411   2.124941
    21  H    3.387865   2.140952   5.875326   4.803930   4.110773
    22  H    4.243908   5.534496   2.164956   4.212276   5.492401
    23  H    3.702606   4.704307   2.176032   3.080487   4.207973
    24  H    3.084923   4.258267   2.164740   3.712033   4.737470
    25  H    3.826075   3.412452   6.084822   6.037938   5.863323
    26  H    3.983708   4.751572   4.858882   6.193890   6.762618
    27  H    3.998950   4.750936   4.915813   6.218013   6.776857
    28  H    4.475364   4.813358   5.971952   6.854888   7.143545
    29  H    4.769512   3.755892   6.164348   3.784388   2.415902
                   11         12         13         14         15
    11  C    0.000000
    12  C    2.499602   0.000000
    13  C    4.240073   2.419616   0.000000
    14  C    5.067310   5.535190   4.613350   0.000000
    15  C    3.766143   1.389936   1.415515   5.583439   0.000000
    16  C    2.582793   5.073309   6.495670   5.536278   6.277151
    17  C    5.738127   3.808551   1.499505   5.263604   2.547580
    18  H    4.822113   4.894078   3.652687   2.167736   4.764036
    19  H    4.790963   5.704944   5.088528   2.180930   5.957266
    20  H    3.429754   5.257802   5.648252   3.310699   6.019823
    21  H    2.684305   1.086127   3.424779   6.490077   2.176464
    22  H    6.127867   6.514729   5.331619   1.094340   6.435344
    23  H    4.972932   5.837424   5.314416   1.096090   6.099185
    24  H    5.026374   5.071141   3.973872   1.094561   4.959618
    25  H    4.657968   2.162568   2.165320   6.571294   1.084339
    26  H    6.180519   4.440858   2.139202   4.887267   3.275549
    27  H    6.181986   4.424573   2.138922   5.437980   3.253583
    28  H    6.261186   4.040967   2.158034   6.289161   2.657291
    29  H    2.310002   4.517438   6.526109   6.805410   5.887935
                   16         17         18         19         20
    16  C    0.000000
    17  C    7.943612   0.000000
    18  H    5.723240   4.231367   0.000000
    19  H    4.826872   5.903461   1.779909   0.000000
    20  H    2.608380   6.862159   3.581019   2.316400   0.000000
    21  H    5.209262   4.717753   5.927431   6.609556   5.881221
    22  H    6.474611   5.747499   2.522241   2.520206   4.084115
    23  H    5.040182   6.118614   3.081249   2.539866   2.931496
    24  H    5.922504   4.531954   2.493227   3.083305   4.012972
    25  H    7.219741   2.758899   5.736522   7.010642   7.096064
    26  H    8.245829   1.094877   4.209775   5.883135   6.969027
    27  H    8.261596   1.095183   4.043479   5.780319   7.000226
    28  H    8.621699   1.093111   5.305080   6.951642   7.771080
    29  H    1.967985   8.025525   6.813527   6.324820   4.330630
                   21         22         23         24         25
    21  H    0.000000
    22  H    7.503328   0.000000
    23  H    6.687920   1.775012   0.000000
    24  H    6.040010   1.773959   1.780074   0.000000
    25  H    2.539072   7.383944   7.107750   5.873927   0.000000
    26  H    5.379518   5.262040   5.756884   4.041384   3.538542
    27  H    5.356532   5.794631   6.388817   4.866486   3.503439
    28  H    4.773539   6.800010   7.097367   5.502955   2.414645
    29  H    4.239478   7.841936   6.420684   6.926587   6.633967
                   26         27         28         29
    26  H    0.000000
    27  H    1.760303   0.000000
    28  H    1.781014   1.779801   0.000000
    29  H    8.468455   8.470011   8.481814   0.000000
 Stoichiometry    C12H12N2O3
 Framework group  C1[X(C12H12N2O3)]
 Deg. of freedom    81
 Full point group                 C1      NOp   1
 Largest Abelian subgroup         C1      NOp   1
 Largest concise Abelian subgroup C1      NOp   1
                         Standard orientation:                         
 ---------------------------------------------------------------------
 Center     Atomic      Atomic             Coordinates (Angstroms)
 Number     Number       Type             X           Y           Z
 ---------------------------------------------------------------------
      1          8           0       -1.657965   -2.372913    0.224976
      2          8           0       -3.974476   -1.163886    0.119647
      3          8           0       -4.000971    1.086352   -0.173505
      4          7           0        0.139524    1.323874   -0.308243
      5          7           0        2.283570    0.372181   -0.200791
      6          6           0        0.947878    0.189612   -0.160711
      7          6           0        0.340113   -1.075345    0.017020
      8          6           0        0.753380    2.668079   -0.441517
      9          6           0       -1.212588    1.195553   -0.252852
     10          6           0       -1.868867   -0.003386   -0.079414
     11          6           0       -1.114313   -1.230465    0.064518
     12          6           0        1.193775   -2.186091    0.151237
     13          6           0        3.090251   -0.700087   -0.071721
     14          6           0        1.003960    3.290732    0.930154
     15          6           0        2.571132   -2.004731    0.107452
     16          6           0       -3.363848    0.033321   -0.050611
     17          6           0        4.565416   -0.437320   -0.129652
     18          1           0        1.691527    2.547760   -0.986698
     19          1           0        0.069449    3.278553   -1.040378
     20          1           0       -1.805405    2.102423   -0.356748
     21          1           0        0.736533   -3.161869    0.287100
     22          1           0        1.436840    4.289710    0.819526
     23          1           0        0.070492    3.381820    1.497388
     24          1           0        1.704114    2.674779    1.503260
     25          1           0        3.254011   -2.840984    0.208193
     26          1           0        4.849072    0.288028    0.639871
     27          1           0        4.831159    0.002122   -1.096966
     28          1           0        5.145473   -1.352690    0.013611
     29          1           0       -3.315389   -1.917690    0.202712
 ---------------------------------------------------------------------
 Rotational constants (GHZ):      0.7827007      0.3457798      0.2461878
 Standard basis: LANL2DZ (5D, 7F)
 There are   177 symmetry adapted cartesian basis functions of A   symmetry.
 There are   177 symmetry adapted basis functions of A   symmetry.
   177 basis functions,   473 primitive gaussians,   177 cartesian basis functions
    61 alpha electrons       61 beta electrons
       nuclear repulsion energy      1181.1557186907 Hartrees.
 NAtoms=   29 NActive=   29 NUniq=   29 SFac= 1.00D+00 NAtFMM=   60 NAOKFM=F Big=F
 Integral buffers will be    131072 words long.
 Raffenetti 2 integral format.
 Two-electron integral symmetry is turned on.
 One-electron integrals computed using PRISM.
 PrsmSu:  requested number of processors reduced to:   9 ShMem   1 Linda.
   1 Symmetry operations used in ECPInt.
 ECPInt:  NShTT=    5995 NPrTT=   46568 LenC2=    5711 LenP2D=   26685.
 LDataN:  DoStor=T MaxTD1= 2 Len=   12
 Number of processors reduced to  11 by ecpmxn.
 NBasis=   177 RedAO= T EigKep=  7.17D-04  NBF=   177
 NBsUse=   177 1.00D-06 EigRej= -1.00D+00 NBFU=   177
 ExpMin= 1.15D-01 ExpMax= 7.82D+03 ExpMxC= 2.73D+02 IAcc=3 IRadAn=         5 AccDes= 0.00D+00
 Harris functional with IExCor= 1009 and IRadAn=       5 diagonalized for initial guess.
 HarFok:  IExCor= 1009 AccDes= 0.00D+00 IRadAn=         5 IDoV= 1 UseB2=F ITyADJ=14
 ICtDFT=  3500011 ScaDFX=  1.000000  1.000000  1.000000  1.000000
 FoFCou: FMM=F IPFlag=           0 FMFlag=      100000 FMFlg1=           0
         NFxFlg=           0 DoJE=T BraDBF=F KetDBF=T FulRan=T
         wScrn=  0.000000 ICntrl=     500 IOpCl=  0 I1Cent=   200000004 NGrid=           0
         NMat0=    1 NMatS0=      1 NMatT0=    0 NMatD0=    1 NMtDS0=    0 NMtDT0=    0
 Petite list used in FoFCou.
 Requested convergence on RMS density matrix=1.00D-08 within 128 cycles.
 Requested convergence on MAX density matrix=1.00D-06.
 Requested convergence on             energy=1.00D-06.
 No special actions if energy rises.
 Integral accuracy reduced to 1.0D-05 until final iterations.
 Initial convergence to 1.0D-05 achieved.  Increase integral accuracy.
 SCF Done:  E(RM06) =  -799.089893464     A.U. after   17 cycles
            NFock= 17  Conv=0.43D-08     -V/T= 2.0049

 **********************************************************************

            Population analysis using the SCF density.

 **********************************************************************

 Orbital symmetries:
       Occupied  (A) (A) (A) (A) (A) (A) (A) (A) (A) (A) (A) (A)
                 (A) (A) (A) (A) (A) (A) (A) (A) (A) (A) (A) (A)
                 (A) (A) (A) (A) (A) (A) (A) (A) (A) (A) (A) (A)
                 (A) (A) (A) (A) (A) (A) (A) (A) (A) (A) (A) (A)
                 (A) (A) (A) (A) (A) (A) (A) (A) (A) (A) (A) (A)
                 (A)
       Virtual   (A) (A) (A) (A) (A) (A) (A) (A) (A) (A) (A) (A)
                 (A) (A) (A) (A) (A) (A) (A) (A) (A) (A) (A) (A)
                 (A) (A) (A) (A) (A) (A) (A) (A) (A) (A) (A) (A)
                 (A) (A) (A) (A) (A) (A) (A) (A) (A) (A) (A) (A)
                 (A) (A) (A) (A) (A) (A) (A) (A) (A) (A) (A) (A)
                 (A) (A) (A) (A) (A) (A) (A) (A) (A) (A) (A) (A)
                 (A) (A) (A) (A) (A) (A) (A) (A) (A) (A) (A) (A)
                 (A) (A) (A) (A) (A) (A) (A) (A) (A) (A) (A) (A)
                 (A) (A) (A) (A) (A) (A) (A) (A) (A) (A) (A) (A)
                 (A) (A) (A) (A) (A) (A) (A) (A)
 The electronic state is 1-A.
 Alpha  occ. eigenvalues --  -19.23700 -19.22213 -19.20292 -14.49872 -14.43750
 Alpha  occ. eigenvalues --  -10.39532 -10.37744 -10.36955 -10.35052 -10.34394
 Alpha  occ. eigenvalues --  -10.31964 -10.30675 -10.30321 -10.29293 -10.28852
 Alpha  occ. eigenvalues --  -10.26605 -10.26208  -1.11539  -1.07282  -1.05709
 Alpha  occ. eigenvalues --   -1.03475  -0.99394  -0.87430  -0.84176  -0.83942
 Alpha  occ. eigenvalues --   -0.79310  -0.76155  -0.71721  -0.69071  -0.67773
 Alpha  occ. eigenvalues --   -0.63750  -0.62538  -0.59808  -0.58281  -0.57007
 Alpha  occ. eigenvalues --   -0.52932  -0.52024  -0.50580  -0.48665  -0.48539
 Alpha  occ. eigenvalues --   -0.48091  -0.46715  -0.45847  -0.44945  -0.44004
 Alpha  occ. eigenvalues --   -0.43539  -0.43248  -0.42168  -0.41663  -0.41171
 Alpha  occ. eigenvalues --   -0.40719  -0.38952  -0.38527  -0.36970  -0.33112
 Alpha  occ. eigenvalues --   -0.31353  -0.30465  -0.30330  -0.28681  -0.27680
 Alpha  occ. eigenvalues --   -0.26459
 Alpha virt. eigenvalues --   -0.08566  -0.06298  -0.02620   0.01235   0.08946
 Alpha virt. eigenvalues --    0.09667   0.10882   0.11935   0.12329   0.12562
 Alpha virt. eigenvalues --    0.14010   0.15251   0.15376   0.15623   0.16388
 Alpha virt. eigenvalues --    0.16957   0.17991   0.18335   0.18597   0.18779
 Alpha virt. eigenvalues --    0.20756   0.21346   0.21788   0.22710   0.23178
 Alpha virt. eigenvalues --    0.24123   0.24712   0.25264   0.25795   0.26569
 Alpha virt. eigenvalues --    0.27326   0.28223   0.28873   0.29078   0.29737
 Alpha virt. eigenvalues --    0.30623   0.31184   0.32102   0.33427   0.34653
 Alpha virt. eigenvalues --    0.35208   0.35519   0.36260   0.37039   0.37838
 Alpha virt. eigenvalues --    0.38626   0.38951   0.39263   0.40336   0.41557
 Alpha virt. eigenvalues --    0.42690   0.43431   0.43947   0.45116   0.45911
 Alpha virt. eigenvalues --    0.46076   0.47461   0.48182   0.50108   0.51045
 Alpha virt. eigenvalues --    0.52707   0.53538   0.54818   0.55683   0.58741
 Alpha virt. eigenvalues --    0.59824   0.62107   0.64779   0.66356   0.67348
 Alpha virt. eigenvalues --    0.68329   0.68970   0.71588   0.72278   0.73955
 Alpha virt. eigenvalues --    0.74906   0.78318   0.81810   0.83708   0.84717
 Alpha virt. eigenvalues --    0.86014   0.86717   0.87224   0.92424   0.97137
 Alpha virt. eigenvalues --    0.98616   1.01110   1.02205   1.05638   1.06225
 Alpha virt. eigenvalues --    1.06589   1.07201   1.07891   1.08631   1.09199
 Alpha virt. eigenvalues --    1.10147   1.11301   1.12962   1.14403   1.15150
 Alpha virt. eigenvalues --    1.18891   1.20961   1.22284   1.25659   1.35478
 Alpha virt. eigenvalues --    1.39453   1.45323   1.46086   1.50320   1.51229
 Alpha virt. eigenvalues --    1.53817   1.69082   1.81672   1.83597   1.94608
 Alpha virt. eigenvalues --    2.00563
          Condensed to atoms (all electrons):
               1          2          3          4          5          6
     1  O    7.973169  -0.043801  -0.000049   0.000154  -0.000104  -0.001740
     2  O   -0.043801   8.138665  -0.070747  -0.000067   0.000000  -0.000056
     3  O   -0.000049  -0.070747   7.868374   0.000662   0.000000  -0.000076
     4  N    0.000154  -0.000067   0.000662   6.760129  -0.067218   0.180501
     5  N   -0.000104   0.000000   0.000000  -0.067218   6.307414   0.465689
     6  C   -0.001740  -0.000056  -0.000076   0.180501   0.465689   5.755678
     7  C   -0.078626   0.000386  -0.000055  -0.074501  -0.029898   0.182027
     8  C    0.000006   0.000008   0.000223   0.234274  -0.005059  -0.053970
     9  C    0.003434  -0.000754   0.003751   0.377207  -0.007096  -0.148272
    10  C   -0.067410  -0.028899  -0.035910  -0.050084  -0.002071   0.002435
    11  C    0.563162   0.012054  -0.000503  -0.003179  -0.000626  -0.043240
    12  C   -0.008279   0.000094   0.000011   0.010547  -0.031980  -0.060758
    13  C   -0.000109   0.000000   0.000000  -0.007295   0.539104  -0.217236
    14  C   -0.000001   0.000000   0.000004  -0.065578  -0.002467  -0.016670
    15  C   -0.000229   0.000000   0.000000  -0.000335  -0.049131  -0.043917
    16  C   -0.006413   0.252660   0.546344   0.004161   0.000026   0.003207
    17  C   -0.000001   0.000000   0.000000   0.000148  -0.067804   0.004310
    18  H    0.000000   0.000000   0.000000  -0.036158   0.016181  -0.008131
    19  H    0.000000   0.000000   0.000000  -0.040483  -0.000273   0.007248
    20  H   -0.000068   0.000339   0.013660  -0.039033   0.000007  -0.002715
    21  H    0.008681   0.000002   0.000000  -0.000090  -0.000274   0.001065
    22  H    0.000000   0.000000   0.000000   0.004611  -0.000063  -0.000183
    23  H    0.000000   0.000000   0.000002  -0.004570   0.000192  -0.000469
    24  H    0.000000   0.000000   0.000000  -0.003910  -0.000213   0.007192
    25  H    0.000004   0.000000   0.000000   0.000023   0.003876   0.003591
    26  H    0.000000   0.000000   0.000000  -0.000008  -0.000914   0.001473
    27  H    0.000000   0.000000   0.000000  -0.000006  -0.001552   0.001365
    28  H    0.000000   0.000000   0.000000  -0.000001   0.000512  -0.000694
    29  H    0.058935   0.210645   0.001921  -0.000018   0.000000  -0.000065
               7          8          9         10         11         12
     1  O   -0.078626   0.000006   0.003434  -0.067410   0.563162  -0.008279
     2  O    0.000386   0.000008  -0.000754  -0.028899   0.012054   0.000094
     3  O   -0.000055   0.000223   0.003751  -0.035910  -0.000503   0.000011
     4  N   -0.074501   0.234274   0.377207  -0.050084  -0.003179   0.010547
     5  N   -0.029898  -0.005059  -0.007096  -0.002071  -0.000626  -0.031980
     6  C    0.182027  -0.053970  -0.148272   0.002435  -0.043240  -0.060758
     7  C    5.393208   0.003949   0.006994  -0.100730   0.199428   0.380484
     8  C    0.003949   5.260004  -0.038448   0.002134   0.000592   0.000117
     9  C    0.006994  -0.038448   5.602684   0.271192  -0.115349   0.003367
    10  C   -0.100730   0.002134   0.271192   5.824488   0.033119  -0.025225
    11  C    0.199428   0.000592  -0.115349   0.033119   5.273293  -0.020785
    12  C    0.380484   0.000117   0.003367  -0.025225  -0.020785   5.275359
    13  C   -0.055617  -0.002436  -0.001268  -0.000706  -0.003785  -0.087060
    14  C   -0.001885   0.282861  -0.004794   0.000078   0.000180   0.000047
    15  C   -0.026632   0.000112   0.000332  -0.002345  -0.015874   0.478976
    16  C   -0.019097   0.000398   0.003062   0.166093  -0.070932  -0.000345
    17  C   -0.005569  -0.000072   0.000052  -0.000038  -0.000240   0.004485
    18  H    0.000374   0.370943   0.002050  -0.000161  -0.000056  -0.000052
    19  H    0.000298   0.361377  -0.002234  -0.000023  -0.000061   0.000013
    20  H   -0.000726   0.000326   0.318748  -0.014455   0.004678   0.000061
    21  H   -0.025727   0.000005  -0.000088   0.001952   0.003819   0.331613
    22  H   -0.000001  -0.028430  -0.000042   0.000005   0.000000   0.000000
    23  H   -0.000033  -0.036308   0.005989   0.000093  -0.000002  -0.000002
    24  H    0.000359  -0.035663  -0.000593  -0.000028   0.000009   0.000025
    25  H   -0.002960  -0.000002   0.000007  -0.000020   0.000096  -0.024918
    26  H   -0.000120   0.000006   0.000001   0.000000  -0.000002  -0.000154
    27  H   -0.000120  -0.000011   0.000001   0.000000  -0.000002  -0.000156
    28  H    0.000395   0.000000   0.000000   0.000000   0.000005   0.001000
    29  H    0.001599   0.000000   0.001900   0.027370  -0.016818   0.000048
              13         14         15         16         17         18
     1  O   -0.000109  -0.000001  -0.000229  -0.006413  -0.000001   0.000000
     2  O    0.000000   0.000000   0.000000   0.252660   0.000000   0.000000
     3  O    0.000000   0.000004   0.000000   0.546344   0.000000   0.000000
     4  N   -0.007295  -0.065578  -0.000335   0.004161   0.000148  -0.036158
     5  N    0.539104  -0.002467  -0.049131   0.000026  -0.067804   0.016181
     6  C   -0.217236  -0.016670  -0.043917   0.003207   0.004310  -0.008131
     7  C   -0.055617  -0.001885  -0.026632  -0.019097  -0.005569   0.000374
     8  C   -0.002436   0.282861   0.000112   0.000398  -0.000072   0.370943
     9  C   -0.001268  -0.004794   0.000332   0.003062   0.000052   0.002050
    10  C   -0.000706   0.000078  -0.002345   0.166093  -0.000038  -0.000161
    11  C   -0.003785   0.000180  -0.015874  -0.070932  -0.000240  -0.000056
    12  C   -0.087060   0.000047   0.478976  -0.000345   0.004485  -0.000052
    13  C    5.110514   0.000815   0.397943  -0.000011   0.223614   0.002306
    14  C    0.000815   5.396342  -0.000118  -0.000041   0.000025  -0.033058
    15  C    0.397943  -0.000118   5.397173  -0.000018  -0.089823   0.000096
    16  C   -0.000011  -0.000041  -0.000018   4.906945   0.000000   0.000001
    17  C    0.223614   0.000025  -0.089823   0.000000   5.577762  -0.000047
    18  H    0.002306  -0.033058   0.000096   0.000001  -0.000047   0.455282
    19  H   -0.000070  -0.042745   0.000006   0.000037  -0.000002  -0.026405
    20  H   -0.000006  -0.000550   0.000000  -0.008564   0.000000   0.000145
    21  H    0.001401   0.000000  -0.037748   0.000003  -0.000305   0.000000
    22  H    0.000000   0.372750   0.000000   0.000000  -0.000001  -0.001289
    23  H    0.000024   0.372422   0.000000   0.000015   0.000000   0.002996
    24  H   -0.000436   0.373925   0.000020   0.000000  -0.000002  -0.003628
    25  H   -0.008612   0.000000   0.320701   0.000000  -0.003303   0.000000
    26  H   -0.027186   0.000006  -0.003261   0.000000   0.370087  -0.000005
    27  H   -0.026357   0.000000  -0.003522   0.000000   0.369843   0.000007
    28  H   -0.044197   0.000000   0.020348   0.000000   0.366628   0.000000
    29  H    0.000000   0.000000   0.000000  -0.044913   0.000000   0.000000
              19         20         21         22         23         24
     1  O    0.000000  -0.000068   0.008681   0.000000   0.000000   0.000000
     2  O    0.000000   0.000339   0.000002   0.000000   0.000000   0.000000
     3  O    0.000000   0.013660   0.000000   0.000000   0.000002   0.000000
     4  N   -0.040483  -0.039033  -0.000090   0.004611  -0.004570  -0.003910
     5  N   -0.000273   0.000007  -0.000274  -0.000063   0.000192  -0.000213
     6  C    0.007248  -0.002715   0.001065  -0.000183  -0.000469   0.007192
     7  C    0.000298  -0.000726  -0.025727  -0.000001  -0.000033   0.000359
     8  C    0.361377   0.000326   0.000005  -0.028430  -0.036308  -0.035663
     9  C   -0.002234   0.318748  -0.000088  -0.000042   0.005989  -0.000593
    10  C   -0.000023  -0.014455   0.001952   0.000005   0.000093  -0.000028
    11  C   -0.000061   0.004678   0.003819   0.000000  -0.000002   0.000009
    12  C    0.000013   0.000061   0.331613   0.000000  -0.000002   0.000025
    13  C   -0.000070  -0.000006   0.001401   0.000000   0.000024  -0.000436
    14  C   -0.042745  -0.000550   0.000000   0.372750   0.372422   0.373925
    15  C    0.000006   0.000000  -0.037748   0.000000   0.000000   0.000020
    16  C    0.000037  -0.008564   0.000003   0.000000   0.000015   0.000000
    17  C   -0.000002   0.000000  -0.000305  -0.000001   0.000000  -0.000002
    18  H   -0.026405   0.000145   0.000000  -0.001289   0.002996  -0.003628
    19  H    0.524559   0.001113   0.000000  -0.001389  -0.003869   0.003177
    20  H    0.001113   0.436377   0.000000   0.000016  -0.000228   0.000018
    21  H    0.000000   0.000000   0.438843   0.000000   0.000000   0.000000
    22  H   -0.001389   0.000016   0.000000   0.468754  -0.019980  -0.018539
    23  H   -0.003869  -0.000228   0.000000  -0.019980   0.487940  -0.021940
    24  H    0.003177   0.000018   0.000000  -0.018539  -0.021940   0.463242
    25  H    0.000000   0.000000  -0.001300   0.000000   0.000000   0.000000
    26  H    0.000000   0.000000   0.000001   0.000000   0.000000   0.000007
    27  H    0.000000   0.000000   0.000001   0.000000   0.000000   0.000000
    28  H    0.000000   0.000000  -0.000003   0.000000   0.000000   0.000000
    29  H    0.000000  -0.000028  -0.000013   0.000000   0.000000   0.000000
              25         26         27         28         29
     1  O    0.000004   0.000000   0.000000   0.000000   0.058935
     2  O    0.000000   0.000000   0.000000   0.000000   0.210645
     3  O    0.000000   0.000000   0.000000   0.000000   0.001921
     4  N    0.000023  -0.000008  -0.000006  -0.000001  -0.000018
     5  N    0.003876  -0.000914  -0.001552   0.000512   0.000000
     6  C    0.003591   0.001473   0.001365  -0.000694  -0.000065
     7  C   -0.002960  -0.000120  -0.000120   0.000395   0.001599
     8  C   -0.000002   0.000006  -0.000011   0.000000   0.000000
     9  C    0.000007   0.000001   0.000001   0.000000   0.001900
    10  C   -0.000020   0.000000   0.000000   0.000000   0.027370
    11  C    0.000096  -0.000002  -0.000002   0.000005  -0.016818
    12  C   -0.024918  -0.000154  -0.000156   0.001000   0.000048
    13  C   -0.008612  -0.027186  -0.026357  -0.044197   0.000000
    14  C    0.000000   0.000006   0.000000   0.000000   0.000000
    15  C    0.320701  -0.003261  -0.003522   0.020348   0.000000
    16  C    0.000000   0.000000   0.000000   0.000000  -0.044913
    17  C   -0.003303   0.370087   0.369843   0.366628   0.000000
    18  H    0.000000  -0.000005   0.000007   0.000000   0.000000
    19  H    0.000000   0.000000   0.000000   0.000000   0.000000
    20  H    0.000000   0.000000   0.000000   0.000000  -0.000028
    21  H   -0.001300   0.000001   0.000001  -0.000003  -0.000013
    22  H    0.000000   0.000000   0.000000   0.000000   0.000000
    23  H    0.000000   0.000000   0.000000   0.000000   0.000000
    24  H    0.000000   0.000007   0.000000   0.000000   0.000000
    25  H    0.485151   0.000241   0.000259  -0.000312   0.000000
    26  H    0.000241   0.457764  -0.018501  -0.021859   0.000000
    27  H    0.000259  -0.018501   0.457059  -0.021948   0.000000
    28  H   -0.000312  -0.021859  -0.021948   0.485599   0.000000
    29  H    0.000000   0.000000   0.000000   0.000000   0.328450
 Mulliken charges:
               1
     1  O   -0.400715
     2  O   -0.470528
     3  O   -0.327611
     4  N   -0.179883
     5  N   -0.066258
     6  C   -0.017591
     7  C    0.252798
     8  C   -0.316938
     9  C   -0.281833
    10  C   -0.000854
    11  C    0.201018
    12  C   -0.226532
    13  C    0.206668
    14  C   -0.631548
    15  C   -0.342752
    16  C    0.267383
    17  C   -0.749749
    18  H    0.258609
    19  H    0.219726
    20  H    0.290885
    21  H    0.278162
    22  H    0.223780
    23  H    0.217728
    24  H    0.236979
    25  H    0.227479
    26  H    0.242424
    27  H    0.243638
    28  H    0.214528
    29  H    0.430986
 Sum of Mulliken charges =   0.00000
 Mulliken charges with hydrogens summed into heavy atoms:
               1
     1  O   -0.400715
     2  O   -0.039542
     3  O   -0.327611
     4  N   -0.179883
     5  N   -0.066258
     6  C   -0.017591
     7  C    0.252798
     8  C    0.161397
     9  C    0.009052
    10  C   -0.000854
    11  C    0.201018
    12  C    0.051630
    13  C    0.206668
    14  C    0.046939
    15  C   -0.115273
    16  C    0.267383
    17  C   -0.049159
 Electronic spatial extent (au):  <R**2>=           4299.8987
 Charge=              0.0000 electrons
 Dipole moment (field-independent basis, Debye):
    X=              9.9752    Y=              1.8502    Z=             -0.1849  Tot=             10.1471
 Quadrupole moment (field-independent basis, Debye-Ang):
   XX=           -122.7655   YY=            -90.5590   ZZ=            -98.0722
   XY=             -4.0569   XZ=              0.2448   YZ=             -0.3724
 Traceless Quadrupole moment (field-independent basis, Debye-Ang):
   XX=            -18.9666   YY=             13.2399   ZZ=              5.7267
   XY=             -4.0569   XZ=              0.2448   YZ=             -0.3724
 Octapole moment (field-independent basis, Debye-Ang**2):
  XXX=            211.4311  YYY=             30.4088  ZZZ=             -0.4192  XYY=             29.2609
  XXY=            -31.9525  XXZ=              2.8138  XZZ=             -8.3476  YZZ=              5.2891
  YYZ=             -1.3238  XYZ=             -2.8592
 Hexadecapole moment (field-independent basis, Debye-Ang**3):
 XXXX=          -4227.5465 YYYY=          -1585.8202 ZZZZ=           -180.4835 XXXY=             23.3652
 XXXZ=            -15.4608 YYYX=            -16.8061 YYYZ=            -15.5480 ZZZX=             -5.0663
 ZZZY=             -3.3539 XXYY=           -903.9426 XXZZ=           -634.2366 YYZZ=           -317.7500
 XXYZ=              5.3119 YYXZ=              7.8526 ZZXY=             15.4461
 N-N= 1.181155718691D+03 E-N=-4.225677409196D+03  KE= 7.951930218681D+02
 PrsmSu:  requested number of processors reduced to:   9 ShMem   1 Linda.
   1 Symmetry operations used in ECPInt.
 ECPInt:  NShTT=    5995 NPrTT=   46568 LenC2=    5711 LenP2D=   26685.
 LDataN:  DoStor=T MaxTD1= 3 Len=   28
 Number of processors reduced to  11 by ecpmxn.
 Calling FoFJK, ICntrl=      2127 FMM=F ISym2X=0 I1Cent= 0 IOpClX= 0 NMat=1 NMatS=1 NMatT=0.
 ***** Axes restored to original set *****
 -------------------------------------------------------------------
 Center     Atomic                   Forces (Hartrees/Bohr)
 Number     Number              X              Y              Z
 -------------------------------------------------------------------
      1        8          -0.000012055   -0.000058618    0.000000249
      2        8           0.000104827   -0.000026889    0.000018817
      3        8           0.000013337    0.000005454    0.000016871
      4        7           0.000004050   -0.000068281    0.000016993
      5        7           0.000005934   -0.000007408   -0.000000615
      6        6          -0.000032816    0.000046213   -0.000047643
      7        6          -0.000042480   -0.000048403    0.000013862
      8        6          -0.000003330    0.000005576    0.000026170
      9        6          -0.000054166    0.000020924   -0.000004539
     10        6          -0.000037502    0.000008469    0.000001005
     11        6           0.000079329    0.000089279    0.000024506
     12        6           0.000009434    0.000020649   -0.000012358
     13        6           0.000018049   -0.000003842    0.000022607
     14        6           0.000038578   -0.000004974   -0.000023204
     15        6          -0.000022878    0.000003594   -0.000001033
     16        6          -0.000010416   -0.000038908   -0.000024507
     17        6          -0.000020856   -0.000018887   -0.000010341
     18        1           0.000000616    0.000009055   -0.000011147
     19        1           0.000008886   -0.000012971   -0.000001056
     20        1           0.000014151   -0.000003260    0.000003148
     21        1           0.000000852   -0.000001551    0.000001170
     22        1          -0.000003900   -0.000004106    0.000015146
     23        1          -0.000001996    0.000002029   -0.000005321
     24        1           0.000002394    0.000006712    0.000015156
     25        1          -0.000003889   -0.000005391   -0.000005838
     26        1           0.000001868   -0.000007819   -0.000003544
     27        1           0.000004647   -0.000001706    0.000001502
     28        1           0.000006837   -0.000000867   -0.000004336
     29        1          -0.000067504    0.000095926   -0.000021721
 -------------------------------------------------------------------
 Cartesian Forces:  Max     0.000104827 RMS     0.000029253

 GradGradGradGradGradGradGradGradGradGradGradGradGradGradGradGradGradGrad
 Berny optimization.
 FormGI is forming the generalized inverse of G from B-inverse, IUseBI=4.
 Internal  Forces:  Max     0.000113067 RMS     0.000016819
 Search for a local minimum.
 Step number   1 out of a maximum of  157
 All quantities printed in internal units (Hartrees-Bohrs-Radians)
 Mixed Optimization -- En-DIIS/RFO-DIIS
 Second derivative matrix not updated -- first step.
 ITU=  0
     Eigenvalues ---    0.00408   0.00584   0.00772   0.00823   0.01312
     Eigenvalues ---    0.01351   0.01368   0.01466   0.01505   0.01646
     Eigenvalues ---    0.01734   0.01862   0.01924   0.02022   0.02060
     Eigenvalues ---    0.02123   0.02154   0.02283   0.02291   0.02309
     Eigenvalues ---    0.04355   0.05325   0.05590   0.05690   0.07158
     Eigenvalues ---    0.07457   0.09221   0.12612   0.16000   0.16000
     Eigenvalues ---    0.16000   0.16000   0.16000   0.16000   0.16000
     Eigenvalues ---    0.16000   0.16000   0.16000   0.21986   0.22522
     Eigenvalues ---    0.23437   0.24513   0.24944   0.24988   0.25000
     Eigenvalues ---    0.25000   0.25000   0.25000   0.25000   0.25000
     Eigenvalues ---    0.25000   0.29695   0.32429   0.32832   0.34118
     Eigenvalues ---    0.34146   0.34221   0.34239   0.34255   0.34291
     Eigenvalues ---    0.34316   0.34456   0.34616   0.34997   0.35264
     Eigenvalues ---    0.35475   0.35498   0.37202   0.39212   0.42623
     Eigenvalues ---    0.43072   0.44501   0.46138   0.46863   0.48168
     Eigenvalues ---    0.51796   0.53402   0.54037   0.54585   0.74535
     Eigenvalues ---    0.88274
 RFO step:  Lambda=-2.34665155D-07 EMin= 4.07752173D-03
 Linear search not attempted -- first point.
 Iteration  1 RMS(Cart)=  0.00044324 RMS(Int)=  0.00000020
 Iteration  2 RMS(Cart)=  0.00000024 RMS(Int)=  0.00000002
 Variable       Old X    -DE/DX   Delta X   Delta X   Delta X     New X
                                 (Linear)    (Quad)   (Total)
    R1        2.41004   0.00006   0.00000   0.00008   0.00008   2.41012
    R2        2.55997  -0.00007   0.00000  -0.00013  -0.00013   2.55984
    R3        1.89870  -0.00011   0.00000  -0.00024  -0.00024   1.89845
    R4        2.33739  -0.00001   0.00000  -0.00001  -0.00001   2.33738
    R5        2.64680  -0.00004   0.00000  -0.00008  -0.00008   2.64672
    R6        2.80385   0.00001   0.00000   0.00003   0.00003   2.80388
    R7        2.56874   0.00001   0.00000   0.00002   0.00002   2.56876
    R8        2.54869   0.00002   0.00000   0.00003   0.00003   2.54872
    R9        2.54738   0.00001   0.00000   0.00002   0.00002   2.54740
   R10        2.67320   0.00000   0.00000  -0.00001  -0.00001   2.67319
   R11        2.76551  -0.00005   0.00000  -0.00015  -0.00015   2.76536
   R12        2.65942  -0.00001   0.00000  -0.00003  -0.00003   2.65939
   R13        2.88576   0.00000   0.00000   0.00001   0.00001   2.88577
   R14        2.06302   0.00000   0.00000   0.00001   0.00001   2.06303
   R15        2.06929  -0.00001   0.00000  -0.00003  -0.00003   2.06926
   R16        2.60360  -0.00002   0.00000  -0.00005  -0.00005   2.60355
   R17        2.05680  -0.00001   0.00000  -0.00003  -0.00003   2.05677
   R18        2.73573   0.00002   0.00000   0.00005   0.00005   2.73578
   R19        2.82648  -0.00004   0.00000  -0.00013  -0.00013   2.82635
   R20        2.62660  -0.00002   0.00000  -0.00004  -0.00004   2.62655
   R21        2.05248   0.00000   0.00000   0.00000   0.00000   2.05248
   R22        2.67494  -0.00001   0.00000  -0.00002  -0.00002   2.67491
   R23        2.83365  -0.00001   0.00000  -0.00002  -0.00002   2.83364
   R24        2.06800  -0.00001   0.00000  -0.00002  -0.00002   2.06798
   R25        2.07131   0.00000   0.00000   0.00001   0.00001   2.07132
   R26        2.06842   0.00000   0.00000   0.00001   0.00001   2.06843
   R27        2.04910   0.00000   0.00000   0.00000   0.00000   2.04911
   R28        2.06902   0.00000   0.00000  -0.00001  -0.00001   2.06901
   R29        2.06960   0.00000   0.00000   0.00000   0.00000   2.06959
   R30        2.06568   0.00000   0.00000   0.00000   0.00000   2.06568
    A1        1.95815  -0.00002   0.00000  -0.00015  -0.00015   1.95800
    A2        2.09943  -0.00002   0.00000  -0.00006  -0.00006   2.09937
    A3        2.08672   0.00002   0.00000   0.00011   0.00011   2.08683
    A4        2.09522  -0.00001   0.00000  -0.00004  -0.00004   2.09518
    A5        2.07387   0.00000   0.00000   0.00003   0.00003   2.07390
    A6        2.04746   0.00001   0.00000   0.00005   0.00005   2.04751
    A7        2.08224   0.00000   0.00000  -0.00001  -0.00001   2.08222
    A8        2.15349  -0.00001   0.00000  -0.00004  -0.00004   2.15345
    A9        2.12451  -0.00001   0.00000  -0.00005  -0.00005   2.12446
   A10        2.04558   0.00000   0.00000   0.00000   0.00000   2.04558
   A11        2.11309   0.00001   0.00000   0.00005   0.00005   2.11314
   A12        1.93543   0.00001   0.00000   0.00008   0.00008   1.93551
   A13        1.87605   0.00000   0.00000   0.00009   0.00009   1.87614
   A14        1.87108  -0.00001   0.00000  -0.00014  -0.00014   1.87095
   A15        1.93103   0.00000   0.00000   0.00006   0.00006   1.93109
   A16        1.94594   0.00000   0.00000   0.00001   0.00001   1.94596
   A17        1.90187  -0.00001   0.00000  -0.00011  -0.00011   1.90176
   A18        2.16650  -0.00003   0.00000  -0.00011  -0.00011   2.16639
   A19        2.04793   0.00001   0.00000   0.00001   0.00001   2.04794
   A20        2.06876   0.00002   0.00000   0.00010   0.00010   2.06885
   A21        2.09652  -0.00001   0.00000  -0.00002  -0.00002   2.09651
   A22        2.04561  -0.00001   0.00000  -0.00004  -0.00004   2.04557
   A23        2.14105   0.00002   0.00000   0.00006   0.00006   2.14111
   A24        2.12080  -0.00003   0.00000  -0.00013  -0.00013   2.12067
   A25        2.15270   0.00001   0.00000   0.00004   0.00004   2.15275
   A26        2.00968   0.00002   0.00000   0.00009   0.00009   2.00977
   A27        2.08876   0.00001   0.00000   0.00003   0.00003   2.08879
   A28        2.05516   0.00000   0.00000   0.00002   0.00002   2.05518
   A29        2.13926  -0.00001   0.00000  -0.00005  -0.00005   2.13921
   A30        2.12445  -0.00001   0.00000  -0.00003  -0.00003   2.12441
   A31        2.03266   0.00001   0.00000   0.00004   0.00004   2.03270
   A32        2.12608   0.00000   0.00000   0.00000   0.00000   2.12607
   A33        1.92444   0.00002   0.00000   0.00011   0.00011   1.92455
   A34        1.93797  -0.00002   0.00000  -0.00017  -0.00017   1.93780
   A35        1.92391   0.00003   0.00000   0.00020   0.00020   1.92411
   A36        1.88949  -0.00001   0.00000  -0.00010  -0.00010   1.88939
   A37        1.88978  -0.00001   0.00000  -0.00001  -0.00001   1.88977
   A38        1.89712   0.00000   0.00000  -0.00003  -0.00003   1.89709
   A39        2.08021   0.00001   0.00000   0.00001   0.00001   2.08022
   A40        2.11825   0.00000   0.00000  -0.00001  -0.00001   2.11823
   A41        2.08473   0.00000   0.00000   0.00000   0.00000   2.08473
   A42        2.13257   0.00002   0.00000   0.00010   0.00010   2.13267
   A43        2.01669  -0.00003   0.00000  -0.00010  -0.00010   2.01659
   A44        2.13392   0.00000   0.00000   0.00001   0.00001   2.13393
   A45        1.92177   0.00000   0.00000  -0.00002  -0.00002   1.92175
   A46        1.92106   0.00001   0.00000   0.00005   0.00005   1.92110
   A47        1.95005   0.00001   0.00000   0.00009   0.00009   1.95014
   A48        1.86721  -0.00001   0.00000  -0.00005  -0.00005   1.86716
   A49        1.90200  -0.00001   0.00000  -0.00004  -0.00004   1.90195
   A50        1.89970  -0.00001   0.00000  -0.00003  -0.00003   1.89967
    D1        3.14131   0.00000   0.00000   0.00003   0.00003   3.14134
    D2       -0.00072  -0.00002   0.00000  -0.00097  -0.00097  -0.00169
    D3       -0.04569   0.00000   0.00000   0.00025   0.00025  -0.04545
    D4        3.09880   0.00000   0.00000  -0.00021  -0.00021   3.09859
    D5       -3.12265   0.00000   0.00000   0.00005   0.00005  -3.12260
    D6        0.02185  -0.00001   0.00000  -0.00042  -0.00042   0.02144
    D7       -1.52247   0.00000   0.00000  -0.00024  -0.00024  -1.52271
    D8        0.59034   0.00000   0.00000  -0.00007  -0.00007   0.59027
    D9        2.63278  -0.00001   0.00000  -0.00022  -0.00022   2.63256
   D10        1.55417   0.00000   0.00000  -0.00004  -0.00004   1.55413
   D11       -2.61621   0.00001   0.00000   0.00014   0.00014  -2.61607
   D12       -0.57377   0.00000   0.00000  -0.00002  -0.00002  -0.57378
   D13       -0.01995   0.00000   0.00000   0.00017   0.00017  -0.01978
   D14        3.12575   0.00000   0.00000   0.00024   0.00024   3.12599
   D15       -3.09706   0.00000   0.00000  -0.00003  -0.00003  -3.09709
   D16        0.04864   0.00000   0.00000   0.00004   0.00004   0.04868
   D17       -3.13327  -0.00001   0.00000  -0.00033  -0.00033  -3.13359
   D18        0.00529   0.00000   0.00000   0.00016   0.00016   0.00545
   D19       -0.00304   0.00000   0.00000   0.00012   0.00012  -0.00292
   D20        3.13735   0.00000   0.00000  -0.00020  -0.00020   3.13715
   D21       -0.01085   0.00000   0.00000   0.00023   0.00023  -0.01062
   D22        3.13390   0.00000   0.00000   0.00017   0.00017   3.13407
   D23        3.13383   0.00000   0.00000  -0.00026  -0.00026   3.13357
   D24       -0.00460  -0.00001   0.00000  -0.00032  -0.00032  -0.00492
   D25       -3.14156  -0.00001   0.00000  -0.00041  -0.00041   3.14122
   D26       -0.00260   0.00000   0.00000   0.00019   0.00019  -0.00241
   D27       -0.00325  -0.00001   0.00000  -0.00035  -0.00035  -0.00360
   D28        3.13571   0.00000   0.00000   0.00026   0.00026   3.13596
   D29        0.00165   0.00000   0.00000   0.00021   0.00021   0.00187
   D30       -3.14050   0.00000   0.00000   0.00010   0.00010  -3.14041
   D31       -3.13680   0.00000   0.00000   0.00015   0.00015  -3.13664
   D32        0.00423   0.00000   0.00000   0.00004   0.00004   0.00427
   D33       -3.12067   0.00001   0.00000   0.00020   0.00020  -3.12047
   D34       -1.02647   0.00000   0.00000   0.00003   0.00003  -1.02644
   D35        1.07695   0.00000   0.00000   0.00001   0.00001   1.07697
   D36        1.08246   0.00000   0.00000   0.00000   0.00000   1.08247
   D37       -3.10652  -0.00001   0.00000  -0.00017  -0.00017  -3.10668
   D38       -1.00310  -0.00001   0.00000  -0.00018  -0.00018  -1.00328
   D39       -1.03712   0.00001   0.00000   0.00009   0.00009  -1.03702
   D40        1.05709   0.00000   0.00000  -0.00008  -0.00008   1.05701
   D41       -3.12268   0.00000   0.00000  -0.00009  -0.00009  -3.12277
   D42        0.00586   0.00001   0.00000   0.00028   0.00028   0.00614
   D43       -3.13458   0.00000   0.00000   0.00018   0.00018  -3.13439
   D44       -3.13988   0.00000   0.00000   0.00020   0.00020  -3.13968
   D45        0.00287   0.00000   0.00000   0.00010   0.00010   0.00297
   D46       -3.13891   0.00000   0.00000   0.00017   0.00017  -3.13874
   D47        0.00537  -0.00001   0.00000  -0.00044  -0.00044   0.00493
   D48        0.00146   0.00000   0.00000   0.00028   0.00028   0.00174
   D49       -3.13744  -0.00001   0.00000  -0.00034  -0.00034  -3.13778
   D50        3.14003   0.00000   0.00000  -0.00062  -0.00062   3.13941
   D51       -0.00200  -0.00002   0.00000  -0.00162  -0.00162  -0.00362
   D52       -0.00037   0.00000   0.00000  -0.00072  -0.00072  -0.00109
   D53        3.14078  -0.00002   0.00000  -0.00172  -0.00172   3.13906
   D54        0.00033   0.00000   0.00000   0.00004   0.00004   0.00037
   D55        3.14130   0.00000   0.00000   0.00003   0.00003   3.14134
   D56       -3.14066   0.00000   0.00000   0.00016   0.00016  -3.14050
   D57        0.00030   0.00000   0.00000   0.00016   0.00016   0.00046
   D58        0.00030   0.00000   0.00000  -0.00022  -0.00022   0.00009
   D59       -3.14068   0.00000   0.00000  -0.00021  -0.00021  -3.14089
   D60       -3.14002   0.00000   0.00000   0.00012   0.00012  -3.13990
   D61        0.00218   0.00000   0.00000   0.00012   0.00012   0.00231
   D62        0.99484   0.00000   0.00000   0.00035   0.00035   0.99519
   D63       -1.05950   0.00001   0.00000   0.00039   0.00039  -1.05910
   D64        3.11096   0.00000   0.00000   0.00034   0.00034   3.11130
   D65       -2.14796   0.00000   0.00000   0.00003   0.00003  -2.14793
   D66        2.08089   0.00000   0.00000   0.00007   0.00007   2.08097
   D67       -0.03183   0.00000   0.00000   0.00002   0.00002  -0.03181
         Item               Value     Threshold  Converged?
 Maximum Force            0.000113     0.000450     YES
 RMS     Force            0.000017     0.000300     YES
 Maximum Displacement     0.003725     0.001800     NO 
 RMS     Displacement     0.000443     0.001200     YES
 Predicted change in Energy=-1.173334D-07
 GradGradGradGradGradGradGradGradGradGradGradGradGradGradGradGradGradGrad

                          Input orientation:                          
 ---------------------------------------------------------------------
 Center     Atomic      Atomic             Coordinates (Angstroms)
 Number     Number       Type             X           Y           Z
 ---------------------------------------------------------------------
      1          8           0       -1.657821   -2.372931    0.225377
      2          8           0       -3.974309   -1.163972    0.118891
      3          8           0       -4.000906    1.086542   -0.172076
      4          7           0        0.139456    1.323795   -0.308149
      5          7           0        2.283535    0.372122   -0.200872
      6          6           0        0.947821    0.189568   -0.160821
      7          6           0        0.340087   -1.075351    0.017263
      8          6           0        0.753365    2.667986   -0.441509
      9          6           0       -1.212678    1.195575   -0.252736
     10          6           0       -1.868901   -0.003361   -0.079256
     11          6           0       -1.114260   -1.230378    0.065033
     12          6           0        1.193761   -2.186069    0.151470
     13          6           0        3.090239   -0.700119   -0.071605
     14          6           0        1.003988    3.290833    0.930070
     15          6           0        2.571095   -2.004736    0.107600
     16          6           0       -3.363816    0.033325   -0.050662
     17          6           0        4.565398   -0.437422   -0.129776
     18          1           0        1.691450    2.547713   -0.986817
     19          1           0        0.069372    3.278321   -1.040411
     20          1           0       -1.805431    2.102455   -0.356717
     21          1           0        0.736558   -3.161839    0.287512
     22          1           0        1.436713    4.289861    0.819407
     23          1           0        0.070440    3.381933    1.497176
     24          1           0        1.704129    2.675084    1.503417
     25          1           0        3.253954   -2.841012    0.208306
     26          1           0        4.849203    0.287854    0.639755
     27          1           0        4.831033    0.002119   -1.097073
     28          1           0        5.145517   -1.352780    0.013319
     29          1           0       -3.315145   -1.917672    0.200741
 ---------------------------------------------------------------------
                    Distance matrix (angstroms):
                    1          2          3          4          5
     1  O    0.000000
     2  O    2.615155   0.000000
     3  O    4.197138   2.269401   0.000000
     4  N    4.144954   4.826428   4.149386   0.000000
     5  N    4.821959   6.451545   6.324984   2.348247   0.000000
     6  C    3.674905   5.112501   5.029372   1.400582   1.348726
     7  C    2.391373   4.316503   4.853231   2.429413   2.433053
     8  C    5.627557   6.111370   5.017634   1.483751   2.769534
     9  C    3.627806   3.651325   2.791525   1.359330   3.592251
    10  C    2.398379   2.412264   2.396236   2.418105   4.171151
    11  C    1.275382   2.861327   3.709052   2.869646   3.766127
    12  C    2.858654   5.268272   6.148108   3.693501   2.802872
    13  C    5.042874   7.082321   7.313452   3.585986   1.348028
    14  C    6.297622   6.729542   5.578762   2.479886   3.381588
    15  C    4.246548   6.599191   7.268110   4.143047   2.413980
    16  C    2.962547   1.354610   1.236888   3.742262   5.659498
    17  C    6.526928   8.574164   8.700909   4.766830   2.422254
    18  H    6.074519   6.862945   5.933105   2.089797   2.387776
    19  H    6.043349   6.117949   4.703729   2.088371   3.748778
    20  H    4.515496   3.949656   2.426167   2.095532   4.442744
    21  H    2.521763   5.119783   6.379932   4.564237   3.888513
    22  H    7.370334   7.714543   6.388426   3.428091   4.136032
    23  H    6.141891   6.238984   4.962971   2.738593   4.103671
    24  H    6.198271   6.992848   6.154524   2.748810   2.923003
    25  H    4.934058   7.420798   8.258533   5.226131   3.381327
    26  H    7.042219   8.957313   8.923083   4.914612   2.701187
    27  H    7.035266   8.965065   8.946214   4.937624   2.725772
    28  H    6.882666   9.122391   9.467931   5.685776   3.348449
    29  H    1.718892   1.004619   3.103959   4.764488   6.062150
                    6          7          8          9         10
     6  C    0.000000
     7  C    1.414593   0.000000
     8  C    2.501830   3.793921   0.000000
     9  C    2.385006   2.764251   2.463525   0.000000
    10  C    2.824500   2.457256   3.760798   1.377741   0.000000
    11  C    2.513848   1.463366   4.352223   2.448654   1.447713
    12  C    2.408664   1.407290   4.909930   4.170113   3.767937
    13  C    2.321520   2.777054   4.116058   4.705481   5.007854
    14  C    3.288014   4.509716   1.527082   3.271504   4.485972
    15  C    2.742634   2.418536   5.043807   4.968780   4.873806
    16  C    4.315873   3.866869   4.903609   2.453376   1.495638
    17  C    3.671640   4.275725   4.926696   6.005660   6.449121
    18  H    2.606934   3.995116   1.091710   3.286505   4.473002
    19  H    3.329527   4.488477   1.095007   2.569420   3.930669
    20  H    3.358259   3.852474   2.621917   1.088393   2.124965
    21  H    3.387856   2.140948   5.875254   4.804003   4.110830
    22  H    4.244086   5.534576   2.165030   4.212288   5.492398
    23  H    3.702694   4.704278   2.175915   3.080381   4.207897
    24  H    3.085365   4.258524   2.164888   3.712248   4.737665
    25  H    3.826085   3.412430   6.084757   6.037996   5.863327
    26  H    3.983888   4.751626   4.859017   6.194102   6.762744
    27  H    3.998881   4.750924   4.915688   6.218013   6.776807
    28  H    4.475468   4.813433   5.971970   6.855038   7.143638
    29  H    4.769074   3.755515   6.163888   3.783954   2.415493
                   11         12         13         14         15
    11  C    0.000000
    12  C    2.499555   0.000000
    13  C    4.240006   2.419595   0.000000
    14  C    5.067209   5.535222   4.613403   0.000000
    15  C    3.766070   1.389912   1.415504   5.583487   0.000000
    16  C    2.582796   5.073271   6.495629   5.536326   6.277094
    17  C    5.738052   3.808517   1.499496   5.263725   2.547560
    18  H    4.822071   4.894087   3.652757   2.167784   4.764066
    19  H    4.790758   5.704769   5.088439   2.180931   5.957117
    20  H    3.429776   5.257836   5.648299   3.310724   6.019850
    21  H    2.684319   1.086126   3.424740   6.490098   2.176415
    22  H    6.127771   6.514817   5.331787   1.094329   6.435484
    23  H    4.972722   5.837415   5.314453   1.096093   6.099213
    24  H    5.026420   5.071394   3.974165   1.094564   4.959904
    25  H    4.657893   2.162540   2.165312   6.571363   1.084341
    26  H    6.180471   4.440830   2.139177   4.887519   3.275505
    27  H    6.181913   4.424565   2.138946   5.437943   3.253617
    28  H    6.261187   4.041019   2.158089   6.289343   2.657364
    29  H    2.309694   4.517156   6.525760   6.805538   5.887621
                   16         17         18         19         20
    16  C    0.000000
    17  C    7.943569   0.000000
    18  H    5.723133   4.231446   0.000000
    19  H    4.826633   5.903411   1.779831   0.000000
    20  H    2.608359   6.862211   3.580985   2.316243   0.000000
    21  H    5.209271   4.717689   5.927455   6.609402   5.881287
    22  H    6.474581   5.747768   2.522384   2.520270   4.084055
    23  H    5.040148   6.118749   3.081204   2.539702   2.931361
    24  H    5.922679   4.532314   2.493522   3.083405   4.013105
    25  H    7.219679   2.758881   5.736558   7.010500   7.096090
    26  H    8.245917   1.094874   4.210001   5.883251   6.969210
    27  H    8.261447   1.095181   4.043414   5.780150   7.000157
    28  H    8.621724   1.093113   5.305158   6.951597   7.771181
    29  H    1.967730   8.025169   6.812925   6.324062   4.330291
                   21         22         23         24         25
    21  H    0.000000
    22  H    7.503398   0.000000
    23  H    6.687897   1.774938   0.000000
    24  H    6.040223   1.773947   1.780060   0.000000
    25  H    2.538993   7.384116   7.107812   5.874231   0.000000
    26  H    5.379433   5.262455   5.757176   4.041815   3.538469
    27  H    5.356532   5.794743   6.388781   4.866705   3.503510
    28  H    4.773551   6.800325   7.097588   5.503384   2.414718
    29  H    4.239314   7.841962   6.420961   6.927011   6.633678
                   26         27         28         29
    26  H    0.000000
    27  H    1.760269   0.000000
    28  H    1.780984   1.779782   0.000000
    29  H    8.468391   8.469365   8.481570   0.000000
 Stoichiometry    C12H12N2O3
 Framework group  C1[X(C12H12N2O3)]
 Deg. of freedom    81
 Full point group                 C1      NOp   1
 Largest Abelian subgroup         C1      NOp   1
 Largest concise Abelian subgroup C1      NOp   1
                         Standard orientation:                         
 ---------------------------------------------------------------------
 Center     Atomic      Atomic             Coordinates (Angstroms)
 Number     Number       Type             X           Y           Z
 ---------------------------------------------------------------------
      1          8           0       -1.657743   -2.372989    0.225266
      2          8           0       -3.974274   -1.164115    0.118781
      3          8           0       -4.000954    1.086398   -0.172186
      4          7           0        0.139399    1.323803   -0.308259
      5          7           0        2.283512    0.372208   -0.200982
      6          6           0        0.947805    0.189606   -0.160931
      7          6           0        0.340118   -1.075336    0.017153
      8          6           0        0.753259    2.668016   -0.441619
      9          6           0       -1.212730    1.195533   -0.252846
     10          6           0       -1.868910   -0.003427   -0.079366
     11          6           0       -1.114223   -1.230416    0.064923
     12          6           0        1.193833   -2.186022    0.151360
     13          6           0        3.090256   -0.700003   -0.071715
     14          6           0        1.003859    3.290872    0.929960
     15          6           0        2.571160   -2.004639    0.107490
     16          6           0       -3.363826    0.033204   -0.050772
     17          6           0        4.565405   -0.437252   -0.129886
     18          1           0        1.691348    2.547778   -0.986928
     19          1           0        0.069243    3.278327   -1.040521
     20          1           0       -1.805516    2.102392   -0.356827
     21          1           0        0.736666   -3.161810    0.287402
     22          1           0        1.436547    4.289917    0.819297
     23          1           0        0.070308    3.381939    1.497066
     24          1           0        1.704023    2.675149    1.503307
     25          1           0        3.254050   -2.840890    0.208196
     26          1           0        4.849184    0.288034    0.639645
     27          1           0        4.831025    0.002299   -1.097183
     28          1           0        5.145558   -1.352589    0.013209
     29          1           0       -3.315083   -1.917791    0.200631
 ---------------------------------------------------------------------
 Rotational constants (GHZ):      0.7826987      0.3457931      0.2461923
 Standard basis: LANL2DZ (5D, 7F)
 There are   177 symmetry adapted cartesian basis functions of A   symmetry.
 There are   177 symmetry adapted basis functions of A   symmetry.
   177 basis functions,   473 primitive gaussians,   177 cartesian basis functions
    61 alpha electrons       61 beta electrons
       nuclear repulsion energy      1181.1668868769 Hartrees.
 NAtoms=   29 NActive=   29 NUniq=   29 SFac= 1.00D+00 NAtFMM=   60 NAOKFM=F Big=F
 Integral buffers will be    131072 words long.
 Raffenetti 2 integral format.
 Two-electron integral symmetry is turned on.
 One-electron integrals computed using PRISM.
 PrsmSu:  requested number of processors reduced to:   9 ShMem   1 Linda.
   1 Symmetry operations used in ECPInt.
 ECPInt:  NShTT=    5995 NPrTT=   46568 LenC2=    5710 LenP2D=   26684.
 LDataN:  DoStor=T MaxTD1= 2 Len=   12
 Number of processors reduced to  11 by ecpmxn.
 NBasis=   177 RedAO= T EigKep=  7.18D-04  NBF=   177
 NBsUse=   177 1.00D-06 EigRej= -1.00D+00 NBFU=   177
 Initial guess from the checkpoint file:  "/tmp/scratch/64747.prometeo/Gau-30689.chk"
 B after Tr=     0.000000    0.000000    0.000000
         Rot=    1.000000   -0.000001   -0.000018   -0.000017 Ang=   0.00 deg.
 Requested convergence on RMS density matrix=1.00D-08 within 128 cycles.
 Requested convergence on MAX density matrix=1.00D-06.
 Requested convergence on             energy=1.00D-06.
 No special actions if energy rises.
 SCF Done:  E(RM06) =  -799.089893407     A.U. after    8 cycles
            NFock=  8  Conv=0.69D-08     -V/T= 2.0049
 PrsmSu:  requested number of processors reduced to:   9 ShMem   1 Linda.
   1 Symmetry operations used in ECPInt.
 ECPInt:  NShTT=    5995 NPrTT=   46568 LenC2=    5710 LenP2D=   26684.
 LDataN:  DoStor=T MaxTD1= 3 Len=   28
 Number of processors reduced to  11 by ecpmxn.
[...]

 **********************************************************************

            Population analysis using the SCF density.

 **********************************************************************

 Orbital symmetries:
       Occupied  (A) (A) (A) (A) (A) (A) (A) (A) (A) (A) (A) (A)
                 (A) (A) (A) (A) (A) (A) (A) (A) (A) (A) (A) (A)
                 (A) (A) (A) (A) (A) (A) (A) (A) (A) (A) (A) (A)
                 (A) (A) (A) (A) (A) (A) (A) (A) (A) (A) (A) (A)
                 (A) (A) (A) (A) (A) (A) (A) (A) (A) (A) (A) (A)
                 (A)
       Virtual   (A) (A) (A) (A) (A) (A) (A) (A) (A) (A) (A) (A)
                 (A) (A) (A) (A) (A) (A) (A) (A) (A) (A) (A) (A)
                 (A) (A) (A) (A) (A) (A) (A) (A) (A) (A) (A) (A)
                 (A) (A) (A) (A) (A) (A) (A) (A) (A) (A) (A) (A)
                 (A) (A) (A) (A) (A) (A) (A) (A) (A) (A) (A) (A)
                 (A) (A) (A) (A) (A) (A) (A) (A) (A) (A) (A) (A)
                 (A) (A) (A) (A) (A) (A) (A) (A) (A) (A) (A) (A)
                 (A) (A) (A) (A) (A) (A) (A) (A) (A) (A) (A) (A)
                 (A) (A) (A) (A) (A) (A) (A) (A) (A) (A) (A) (A)
                 (A) (A) (A) (A) (A) (A) (A) (A)
 The electronic state is 1-A.
 Alpha  occ. eigenvalues --  -19.23701 -19.22211 -19.20292 -14.49872 -14.43749
 Alpha  occ. eigenvalues --  -10.39532 -10.37744 -10.36954 -10.35053 -10.34394
 Alpha  occ. eigenvalues --  -10.31964 -10.30674 -10.30319 -10.29293 -10.28852
 Alpha  occ. eigenvalues --  -10.26604 -10.26208  -1.11545  -1.07279  -1.05709
 Alpha  occ. eigenvalues --   -1.03479  -0.99393  -0.87430  -0.84177  -0.83942
 Alpha  occ. eigenvalues --   -0.79310  -0.76157  -0.71723  -0.69071  -0.67774
 Alpha  occ. eigenvalues --   -0.63750  -0.62542  -0.59810  -0.58282  -0.57008
 Alpha  occ. eigenvalues --   -0.52933  -0.52025  -0.50580  -0.48665  -0.48541
 Alpha  occ. eigenvalues --   -0.48090  -0.46715  -0.45849  -0.44944  -0.44003
 Alpha  occ. eigenvalues --   -0.43540  -0.43248  -0.42168  -0.41662  -0.41171
 Alpha  occ. eigenvalues --   -0.40718  -0.38950  -0.38528  -0.36972  -0.33112
 Alpha  occ. eigenvalues --   -0.31355  -0.30464  -0.30331  -0.28681  -0.27680
 Alpha  occ. eigenvalues --   -0.26459
 Alpha virt. eigenvalues --   -0.08567  -0.06298  -0.02619   0.01235   0.08947
 Alpha virt. eigenvalues --    0.09667   0.10882   0.11935   0.12329   0.12563
 Alpha virt. eigenvalues --    0.14012   0.15254   0.15376   0.15624   0.16389
 Alpha virt. eigenvalues --    0.16957   0.17992   0.18335   0.18599   0.18780
 Alpha virt. eigenvalues --    0.20757   0.21348   0.21789   0.22710   0.23181
 Alpha virt. eigenvalues --    0.24124   0.24713   0.25265   0.25796   0.26569
 Alpha virt. eigenvalues --    0.27328   0.28224   0.28872   0.29081   0.29738
 Alpha virt. eigenvalues --    0.30624   0.31184   0.32103   0.33426   0.34654
 Alpha virt. eigenvalues --    0.35209   0.35522   0.36260   0.37040   0.37839
 Alpha virt. eigenvalues --    0.38627   0.38948   0.39264   0.40336   0.41558
 Alpha virt. eigenvalues --    0.42693   0.43430   0.43946   0.45116   0.45911
 Alpha virt. eigenvalues --    0.46077   0.47461   0.48180   0.50110   0.51045
 Alpha virt. eigenvalues --    0.52705   0.53539   0.54819   0.55684   0.58742
 Alpha virt. eigenvalues --    0.59825   0.62108   0.64781   0.66357   0.67350
 Alpha virt. eigenvalues --    0.68325   0.68971   0.71587   0.72280   0.73955
 Alpha virt. eigenvalues --    0.74904   0.78318   0.81811   0.83709   0.84719
 Alpha virt. eigenvalues --    0.86014   0.86718   0.87227   0.92426   0.97136
 Alpha virt. eigenvalues --    0.98617   1.01111   1.02204   1.05639   1.06226
 Alpha virt. eigenvalues --    1.06588   1.07202   1.07892   1.08630   1.09198
 Alpha virt. eigenvalues --    1.10150   1.11306   1.12962   1.14400   1.15147
 Alpha virt. eigenvalues --    1.18892   1.20960   1.22281   1.25661   1.35478
 Alpha virt. eigenvalues --    1.39454   1.45325   1.46084   1.50322   1.51229
 Alpha virt. eigenvalues --    1.53820   1.69082   1.81674   1.83601   1.94611
 Alpha virt. eigenvalues --    2.00562
          Condensed to atoms (all electrons):
               1          2          3          4          5          6
     1  O    7.973208  -0.043796  -0.000049   0.000153  -0.000104  -0.001737
     2  O   -0.043796   8.138511  -0.070732  -0.000067   0.000000  -0.000055
     3  O   -0.000049  -0.070732   7.868385   0.000663   0.000000  -0.000076
     4  N    0.000153  -0.000067   0.000663   6.760122  -0.067199   0.180499
     5  N   -0.000104   0.000000   0.000000  -0.067199   6.307448   0.465672
     6  C   -0.001737  -0.000055  -0.000076   0.180499   0.465672   5.755710
     7  C   -0.078627   0.000385  -0.000055  -0.074469  -0.029900   0.182048
     8  C    0.000006   0.000008   0.000223   0.234263  -0.005044  -0.053974
     9  C    0.003433  -0.000750   0.003754   0.377179  -0.007092  -0.148293
    10  C   -0.067408  -0.028870  -0.035904  -0.050108  -0.002072   0.002446
    11  C    0.563145   0.012038  -0.000503  -0.003179  -0.000629  -0.043220
    12  C   -0.008299   0.000094   0.000011   0.010548  -0.031980  -0.060783
    13  C   -0.000109   0.000000   0.000000  -0.007295   0.539090  -0.217227
    14  C   -0.000001   0.000000   0.000004  -0.065544  -0.002462  -0.016676
    15  C   -0.000229   0.000000   0.000000  -0.000334  -0.049137  -0.043901
    16  C   -0.006417   0.252645   0.546324   0.004164   0.000026   0.003208
    17  C   -0.000001   0.000000   0.000000   0.000148  -0.067797   0.004308
    18  H    0.000000   0.000000   0.000000  -0.036144   0.016170  -0.008129
    19  H    0.000000   0.000000   0.000000  -0.040508  -0.000273   0.007252
    20  H   -0.000068   0.000339   0.013660  -0.039024   0.000007  -0.002715
    21  H    0.008684   0.000002   0.000000  -0.000090  -0.000274   0.001067
    22  H    0.000000   0.000000   0.000000   0.004608  -0.000063  -0.000183
    23  H    0.000000   0.000000   0.000002  -0.004572   0.000192  -0.000468
    24  H    0.000000   0.000000   0.000000  -0.003908  -0.000212   0.007183
    25  H    0.000004   0.000000   0.000000   0.000023   0.003877   0.003591
    26  H    0.000000   0.000000   0.000000  -0.000008  -0.000916   0.001474
    27  H    0.000000   0.000000   0.000000  -0.000006  -0.001550   0.001364
    28  H    0.000000   0.000000   0.000000  -0.000001   0.000512  -0.000694
    29  H    0.058961   0.210660   0.001920  -0.000018   0.000000  -0.000066
               7          8          9         10         11         12
     1  O   -0.078627   0.000006   0.003433  -0.067408   0.563145  -0.008299
     2  O    0.000385   0.000008  -0.000750  -0.028870   0.012038   0.000094
     3  O   -0.000055   0.000223   0.003754  -0.035904  -0.000503   0.000011
     4  N   -0.074469   0.234263   0.377179  -0.050108  -0.003179   0.010548
     5  N   -0.029900  -0.005044  -0.007092  -0.002072  -0.000629  -0.031980
     6  C    0.182048  -0.053974  -0.148293   0.002446  -0.043220  -0.060783
     7  C    5.392982   0.003948   0.006992  -0.100653   0.199435   0.380517
     8  C    0.003948   5.259913  -0.038433   0.002135   0.000594   0.000117
     9  C    0.006992  -0.038433   5.602694   0.271167  -0.115326   0.003367
    10  C   -0.100653   0.002135   0.271167   5.824457   0.033107  -0.025230
    11  C    0.199435   0.000594  -0.115326   0.033107   5.273319  -0.020795
    12  C    0.380517   0.000117   0.003367  -0.025230  -0.020795   5.275354
    13  C   -0.055607  -0.002433  -0.001268  -0.000706  -0.003787  -0.087059
    14  C   -0.001887   0.282852  -0.004791   0.000077   0.000181   0.000047
    15  C   -0.026641   0.000113   0.000332  -0.002345  -0.015876   0.478988
    16  C   -0.019098   0.000398   0.003053   0.166130  -0.070909  -0.000345
    17  C   -0.005569  -0.000072   0.000052  -0.000038  -0.000240   0.004486
    18  H    0.000375   0.370943   0.002048  -0.000161  -0.000056  -0.000052
    19  H    0.000298   0.361381  -0.002229  -0.000023  -0.000061   0.000013
    20  H   -0.000725   0.000325   0.318743  -0.014438   0.004674   0.000061
    21  H   -0.025724   0.000005  -0.000088   0.001951   0.003817   0.331611
    22  H   -0.000001  -0.028417  -0.000042   0.000005   0.000000   0.000000
    23  H   -0.000033  -0.036329   0.005990   0.000093  -0.000002  -0.000002
    24  H    0.000358  -0.035639  -0.000592  -0.000028   0.000009   0.000025
    25  H   -0.002961  -0.000002   0.000007  -0.000020   0.000096  -0.024919
    26  H   -0.000120   0.000006   0.000001   0.000000  -0.000002  -0.000154
    27  H   -0.000119  -0.000011   0.000001   0.000000  -0.000002  -0.000156
    28  H    0.000394   0.000000   0.000000   0.000000   0.000005   0.001000
    29  H    0.001600   0.000000   0.001902   0.027380  -0.016820   0.000048
              13         14         15         16         17         18
     1  O   -0.000109  -0.000001  -0.000229  -0.006417  -0.000001   0.000000
     2  O    0.000000   0.000000   0.000000   0.252645   0.000000   0.000000
     3  O    0.000000   0.000004   0.000000   0.546324   0.000000   0.000000
     4  N   -0.007295  -0.065544  -0.000334   0.004164   0.000148  -0.036144
     5  N    0.539090  -0.002462  -0.049137   0.000026  -0.067797   0.016170
     6  C   -0.217227  -0.016676  -0.043901   0.003208   0.004308  -0.008129
     7  C   -0.055607  -0.001887  -0.026641  -0.019098  -0.005569   0.000375
     8  C   -0.002433   0.282852   0.000113   0.000398  -0.000072   0.370943
     9  C   -0.001268  -0.004791   0.000332   0.003053   0.000052   0.002048
    10  C   -0.000706   0.000077  -0.002345   0.166130  -0.000038  -0.000161
    11  C   -0.003787   0.000181  -0.015876  -0.070909  -0.000240  -0.000056
    12  C   -0.087059   0.000047   0.478988  -0.000345   0.004486  -0.000052
    13  C    5.110453   0.000816   0.397940  -0.000011   0.223610   0.002305
    14  C    0.000816   5.396334  -0.000118  -0.000041   0.000025  -0.033043
    15  C    0.397940  -0.000118   5.397172  -0.000018  -0.089821   0.000096
    16  C   -0.000011  -0.000041  -0.000018   4.906963   0.000000   0.000001
    17  C    0.223610   0.000025  -0.089821   0.000000   5.577804  -0.000047
    18  H    0.002305  -0.033043   0.000096   0.000001  -0.000047   0.455271
    19  H   -0.000070  -0.042744   0.000006   0.000037  -0.000002  -0.026421
    20  H   -0.000006  -0.000551   0.000000  -0.008569   0.000000   0.000145
    21  H    0.001403   0.000000  -0.037751   0.000003  -0.000305   0.000000
    22  H    0.000000   0.372750   0.000000   0.000000  -0.000001  -0.001289
    23  H    0.000024   0.372427   0.000000   0.000016   0.000000   0.002997
    24  H   -0.000436   0.373920   0.000020   0.000000  -0.000002  -0.003625
    25  H   -0.008614   0.000000   0.320696   0.000000  -0.003302   0.000000
    26  H   -0.027174   0.000006  -0.003263   0.000000   0.370068  -0.000005
    27  H   -0.026366   0.000000  -0.003520   0.000000   0.369859   0.000007
    28  H   -0.044187   0.000000   0.020344   0.000000   0.366629   0.000000
    29  H    0.000000   0.000000   0.000000  -0.044945   0.000000   0.000000
              19         20         21         22         23         24
     1  O    0.000000  -0.000068   0.008684   0.000000   0.000000   0.000000
     2  O    0.000000   0.000339   0.000002   0.000000   0.000000   0.000000
     3  O    0.000000   0.013660   0.000000   0.000000   0.000002   0.000000
     4  N   -0.040508  -0.039024  -0.000090   0.004608  -0.004572  -0.003908
     5  N   -0.000273   0.000007  -0.000274  -0.000063   0.000192  -0.000212
     6  C    0.007252  -0.002715   0.001067  -0.000183  -0.000468   0.007183
     7  C    0.000298  -0.000725  -0.025724  -0.000001  -0.000033   0.000358
     8  C    0.361381   0.000325   0.000005  -0.028417  -0.036329  -0.035639
     9  C   -0.002229   0.318743  -0.000088  -0.000042   0.005990  -0.000592
    10  C   -0.000023  -0.014438   0.001951   0.000005   0.000093  -0.000028
    11  C   -0.000061   0.004674   0.003817   0.000000  -0.000002   0.000009
    12  C    0.000013   0.000061   0.331611   0.000000  -0.000002   0.000025
    13  C   -0.000070  -0.000006   0.001403   0.000000   0.000024  -0.000436
    14  C   -0.042744  -0.000551   0.000000   0.372750   0.372427   0.373920
    15  C    0.000006   0.000000  -0.037751   0.000000   0.000000   0.000020
    16  C    0.000037  -0.008569   0.000003   0.000000   0.000016   0.000000
    17  C   -0.000002   0.000000  -0.000305  -0.000001   0.000000  -0.000002
    18  H   -0.026421   0.000145   0.000000  -0.001289   0.002997  -0.003625
    19  H    0.524605   0.001115   0.000000  -0.001388  -0.003873   0.003175
    20  H    0.001115   0.436344   0.000000   0.000016  -0.000229   0.000018
    21  H    0.000000   0.000000   0.438834   0.000000   0.000000   0.000000
    22  H   -0.001388   0.000016   0.000000   0.468734  -0.019993  -0.018537
    23  H   -0.003873  -0.000229   0.000000  -0.019993   0.488002  -0.021944
    24  H    0.003175   0.000018   0.000000  -0.018537  -0.021944   0.463217
    25  H    0.000000   0.000000  -0.001301   0.000000   0.000000   0.000000
    26  H    0.000000   0.000000   0.000001   0.000000   0.000000   0.000007
    27  H    0.000000   0.000000   0.000001   0.000000   0.000000   0.000000
    28  H    0.000000   0.000000  -0.000003   0.000000   0.000000   0.000000
    29  H    0.000000  -0.000028  -0.000013   0.000000   0.000000   0.000000
              25         26         27         28         29
     1  O    0.000004   0.000000   0.000000   0.000000   0.058961
     2  O    0.000000   0.000000   0.000000   0.000000   0.210660
     3  O    0.000000   0.000000   0.000000   0.000000   0.001920
     4  N    0.000023  -0.000008  -0.000006  -0.000001  -0.000018
     5  N    0.003877  -0.000916  -0.001550   0.000512   0.000000
     6  C    0.003591   0.001474   0.001364  -0.000694  -0.000066
     7  C   -0.002961  -0.000120  -0.000119   0.000394   0.001600
     8  C   -0.000002   0.000006  -0.000011   0.000000   0.000000
     9  C    0.000007   0.000001   0.000001   0.000000   0.001902
    10  C   -0.000020   0.000000   0.000000   0.000000   0.027380
    11  C    0.000096  -0.000002  -0.000002   0.000005  -0.016820
    12  C   -0.024919  -0.000154  -0.000156   0.001000   0.000048
    13  C   -0.008614  -0.027174  -0.026366  -0.044187   0.000000
    14  C    0.000000   0.000006   0.000000   0.000000   0.000000
    15  C    0.320696  -0.003263  -0.003520   0.020344   0.000000
    16  C    0.000000   0.000000   0.000000   0.000000  -0.044945
    17  C   -0.003302   0.370068   0.369859   0.366629   0.000000
    18  H    0.000000  -0.000005   0.000007   0.000000   0.000000
    19  H    0.000000   0.000000   0.000000   0.000000   0.000000
    20  H    0.000000   0.000000   0.000000   0.000000  -0.000028
    21  H   -0.001301   0.000001   0.000001  -0.000003  -0.000013
    22  H    0.000000   0.000000   0.000000   0.000000   0.000000
    23  H    0.000000   0.000000   0.000000   0.000000   0.000000
    24  H    0.000000   0.000007   0.000000   0.000000   0.000000
    25  H    0.485160   0.000241   0.000259  -0.000313   0.000000
    26  H    0.000241   0.457776  -0.018505  -0.021863   0.000000
    27  H    0.000259  -0.018505   0.457050  -0.021949   0.000000
    28  H   -0.000313  -0.021863  -0.021949   0.485582   0.000000
    29  H    0.000000   0.000000   0.000000   0.000000   0.328472
 Mulliken charges:
               1
     1  O   -0.400750
     2  O   -0.470412
     3  O   -0.327628
     4  N   -0.179898
     5  N   -0.066290
     6  C   -0.017626
     7  C    0.252857
     8  C   -0.316877
     9  C   -0.281811
    10  C   -0.000944
    11  C    0.200989
    12  C   -0.226513
    13  C    0.206716
    14  C   -0.631582
    15  C   -0.342753
    16  C    0.267385
    17  C   -0.749793
    18  H    0.258613
    19  H    0.219710
    20  H    0.290906
    21  H    0.278171
    22  H    0.223800
    23  H    0.217701
    24  H    0.236991
    25  H    0.227478
    26  H    0.242430
    27  H    0.243644
    28  H    0.214544
    29  H    0.430944
 Sum of Mulliken charges =   0.00000
 Mulliken charges with hydrogens summed into heavy atoms:
               1
     1  O   -0.400750
     2  O   -0.039468
     3  O   -0.327628
     4  N   -0.179898
     5  N   -0.066290
     6  C   -0.017626
     7  C    0.252857
     8  C    0.161445
     9  C    0.009095
    10  C   -0.000944
    11  C    0.200989
    12  C    0.051657
    13  C    0.206716
    14  C    0.046910
    15  C   -0.115275
    16  C    0.267385
    17  C   -0.049175
 Electronic spatial extent (au):  <R**2>=           4299.7854
 Charge=              0.0000 electrons
 Dipole moment (field-independent basis, Debye):
    X=              9.9747    Y=              1.8518    Z=             -0.1838  Tot=             10.1468
 Quadrupole moment (field-independent basis, Debye-Ang):
   XX=           -122.7601   YY=            -90.5630   ZZ=            -98.0705
   XY=             -4.0608   XZ=              0.2431   YZ=             -0.3739
 Traceless Quadrupole moment (field-independent basis, Debye-Ang):
   XX=            -18.9622   YY=             13.2349   ZZ=              5.7273
   XY=             -4.0608   XZ=              0.2431   YZ=             -0.3739
 Octapole moment (field-independent basis, Debye-Ang**2):
  XXX=            211.4249  YYY=             30.4284  ZZZ=             -0.4202  XYY=             29.2681
  XXY=            -31.9437  XXZ=              2.8198  XZZ=             -8.3483  YZZ=              5.2890
  YYZ=             -1.3176  XYZ=             -2.8519
 Hexadecapole moment (field-independent basis, Debye-Ang**3):
 XXXX=          -4227.1984 YYYY=          -1585.8388 ZZZZ=           -180.4754 XXXY=             23.3257
 XXXZ=            -15.4802 YYYX=            -16.8438 YYYZ=            -15.5482 ZZZX=             -5.0622
 ZZZY=             -3.3648 XXYY=           -903.9476 XXZZ=           -634.2052 YYZZ=           -317.7423
 XXYZ=              5.3074 YYXZ=              7.8462 ZZXY=             15.4568
 N-N= 1.181170734647D+03 E-N=-4.225707892008D+03  KE= 7.951940192972D+02
 1\1\GINC-NODE046\FOpt\RM06\LANL2DZ\C12H12N2O3\SUPERCOMPUTO1\22-Aug-202
 0\0\\#opt M06/lanl2dz integral=ultrafine geom=connectivity\\Title Card
  Required\\0,1\O,-1.657779032,-2.3730195858,0.2246544265\O,-3.97425907
 87,-1.1638183054,0.1195948586\O,-4.0008760932,1.0864085641,-0.17349861
 3\N,0.1394560707,1.3237546688,-0.3081873922\N,2.2835463768,0.372114848
 9,-0.2008627265\C,0.9478209191,0.1895597226,-0.1608923864\C,0.34009384
 72,-1.0753744266,0.017135959\C,0.7533836073,2.6679566574,-0.4414686809
 \C,-1.2126940432,1.1955815947,-0.2528258486\C,-1.8689014579,-0.0033524
 797,-0.079345679\C,-1.1142163285,-1.2303732264,0.0647689041\C,1.193770
 3118,-2.1860911915,0.1512493586\C,3.0902536906,-0.7001300294,-0.071619
 2945\C,1.0039337908,3.2907930715,0.9301195965\C,2.5710939359,-2.004756
 6214,0.1074467159\C,-3.3637878308,0.0333645451,-0.050593867\C,4.565408
 8855,-0.4374350213,-0.1296643677\H,1.6914646846,2.5477479151,-0.986801
 3516\H,0.0693962711,3.2782741923,-1.0403868393\H,-1.8053953732,2.10249
 46757,-0.3567043508\H,0.736587577,-3.1618827236,0.2872036773\H,1.43657
 32496,4.2898619953,0.8195441232\H,0.0703073375,3.3818483169,1.49711376
 9\H,1.7040362053,2.6751114295,1.5035858227\H,3.2539407326,-2.841051246
 7,0.2080912927\H,4.8491898336,0.2876566625,0.6400501006\H,4.8311056819
 ,0.0023520485,-1.096831236\H,5.1455533719,-1.352807068,0.0132419866\H,
 -3.3151601434,-1.9173469829,0.2027400422\\Version=ES64L-G09RevD.01\Sta
 te=1-A\HF=-799.0898935\RMSD=5.725e-09\RMSF=1.557e-05\Dipole=3.9243697,
 0.7283362,-0.0723204\Quadrupole=-14.098257,9.8401173,4.2581397,-3.0178
 347,0.1807613,-0.2779887\PG=C01 [X(C12H12N2O3)]\\@


 HOW IS IT THAT THE SKY FEEDS THE STARS?

                           -- LUCRETIUS
 Job cpu time:       0 days  0 hours 26 minutes 55.8 seconds.
 File lengths (MBytes):  RWF=     22 Int=      0 D2E=      0 Chk=      4 Scr=      1
 Normal termination of Gaussian 09 at Sat Aug 22 21:45:14 2020.
