 Entering Gaussian System, Link 0=g09
 Input=moxifloxacina.gjf
 Output=moxifloxacina.log
 Initial command:
 /usr/local/cluster_programs/g09/l1.exe "/tmp/scratch/63948.prometeo/Gau-20909.inp" -scrdir="/tmp/scratch/63948.prometeo/"
 Entering Link 1 = /usr/local/cluster_programs/g09/l1.exe PID=     20910.
  
 Copyright (c) 1988,1990,1992,1993,1995,1998,2003,2009,2013,
            Gaussian, Inc.  All Rights Reserved.
  
 This is part of the Gaussian(R) 09 program.  It is based on
 the Gaussian(R) 03 system (copyright 2003, Gaussian, Inc.),
 the Gaussian(R) 98 system (copyright 1998, Gaussian, Inc.),
 the Gaussian(R) 94 system (copyright 1995, Gaussian, Inc.),
 the Gaussian 92(TM) system (copyright 1992, Gaussian, Inc.),
 the Gaussian 90(TM) system (copyright 1990, Gaussian, Inc.),
 the Gaussian 88(TM) system (copyright 1988, Gaussian, Inc.),
 the Gaussian 86(TM) system (copyright 1986, Carnegie Mellon
 University), and the Gaussian 82(TM) system (copyright 1983,
 Carnegie Mellon University). Gaussian is a federally registered
 trademark of Gaussian, Inc.
  
 This software contains proprietary and confidential information,
 including trade secrets, belonging to Gaussian, Inc.
  
 This software is provided under written license and may be
 used, copied, transmitted, or stored only in accord with that
 written license.
  
 The following legend is applicable only to US Government
 contracts under FAR:
  
                    RESTRICTED RIGHTS LEGEND
  
 Use, reproduction and disclosure by the US Government is
 subject to restrictions as set forth in subparagraphs (a)
 and (c) of the Commercial Computer Software - Restricted
 Rights clause in FAR 52.227-19.
  
 Gaussian, Inc.
 340 Quinnipiac St., Bldg. 40, Wallingford CT 06492
  
  
 ---------------------------------------------------------------
 Warning -- This program may not be used in any manner that
 competes with the business of Gaussian, Inc. or will provide
 assistance to any competitor of Gaussian, Inc.  The licensee
 of this program is prohibited from giving any competitor of
 Gaussian, Inc. access to this program.  By using this program,
 the user acknowledges that Gaussian, Inc. is engaged in the
 business of creating and licensing software in the field of
 computational chemistry and represents and warrants to the
 licensee that it is not a competitor of Gaussian, Inc. and that
 it will not use this program in any manner prohibited above.
 ---------------------------------------------------------------
  

 Cite this work as:
 Gaussian 09, Revision D.01,
 M. J. Frisch, G. W. Trucks, H. B. Schlegel, G. E. Scuseria, 
 M. A. Robb, J. R. Cheeseman, G. Scalmani, V. Barone, B. Mennucci, 
 G. A. Petersson, H. Nakatsuji, M. Caricato, X. Li, H. P. Hratchian, 
 A. F. Izmaylov, J. Bloino, G. Zheng, J. L. Sonnenberg, M. Hada, 
 M. Ehara, K. Toyota, R. Fukuda, J. Hasegawa, M. Ishida, T. Nakajima, 
 Y. Honda, O. Kitao, H. Nakai, T. Vreven, J. A. Montgomery, Jr., 
 J. E. Peralta, F. Ogliaro, M. Bearpark, J. J. Heyd, E. Brothers, 
 K. N. Kudin, V. N. Staroverov, T. Keith, R. Kobayashi, J. Normand, 
 K. Raghavachari, A. Rendell, J. C. Burant, S. S. Iyengar, J. Tomasi, 
 M. Cossi, N. Rega, J. M. Millam, M. Klene, J. E. Knox, J. B. Cross, 
 V. Bakken, C. Adamo, J. Jaramillo, R. Gomperts, R. E. Stratmann, 
 O. Yazyev, A. J. Austin, R. Cammi, C. Pomelli, J. W. Ochterski, 
 R. L. Martin, K. Morokuma, V. G. Zakrzewski, G. A. Voth, 
 P. Salvador, J. J. Dannenberg, S. Dapprich, A. D. Daniels, 
 O. Farkas, J. B. Foresman, J. V. Ortiz, J. Cioslowski, 
 and D. J. Fox, Gaussian, Inc., Wallingford CT, 2013.
 
 ******************************************
 Gaussian 09:  ES64L-G09RevD.01 24-Apr-2013
                 6-Jul-2020 
 ******************************************
 %nprocshared=20
 Will use up to   20 processors via shared memory.
 -----------------------------------
 # opt b3lyp/3-21g geom=connectivity
 -----------------------------------
 1/14=-1,18=20,19=15,26=3,38=1,57=2/1,3;
 2/9=110,12=2,17=6,18=5,40=1/2;
 3/5=5,11=2,16=1,25=1,30=1,71=1,74=-5/1,2,3;
 4//1;
 5/5=2,38=5/2;
 6/7=2,8=2,9=2,10=2,28=1/1;
 7//1,2,3,16;
 1/14=-1,18=20,19=15,26=3/3(2);
 2/9=110/2;
 99//99;
 2/9=110/2;
 3/5=5,11=2,16=1,25=1,30=1,71=1,74=-5/1,2,3;
 4/5=5,16=3,69=1/1;
 5/5=2,38=5/2;
 7//1,2,3,16;
 1/14=-1,18=20,19=15,26=3/3(-5);
 2/9=110/2;
 6/7=2,8=2,9=2,10=2,19=2,28=1/1;
 99/9=1/99;
 -------------------
 Title Card Required
 -------------------
 Symbolic Z-matrix:
 Charge =  0 Multiplicity = 1
 F(PDBName=F1,ResName=MOL,ResNum=1) 0    -10.039   -5.638     9.164    L 
 O(PDBName=O2,ResName=MOL,ResNum=1) 0    -9.008    -10.302    8.774    L 
 O(PDBName=O3,ResName=MOL,ResNum=1) 0    -5.13     -5.733     9.704    L 
 O(PDBName=O4,ResName=MOL,ResNum=1) 0    -2.506    -6.698     9.805    L 
 O(PDBName=O5,ResName=MOL,ResNum=1) 0    -2.266    -8.945     9.806    L 
 N(PDBName=N6,ResName=MOL,ResNum=1) 0    -10.946   -8.277     8.898    L 
 N(PDBName=N7,ResName=MOL,ResNum=1) 0    -14.145   -9.771     9.972    L 
 N(PDBName=N8,ResName=MOL,ResNum=1) 0    -6.241    -9.709     9.373    L 
 C(PDBName=C9,ResName=MOL,ResNum=1) 0    -13.259   -7.978     8.479    L 
 C(PDBName=C10,ResName=MOL,ResNum=1) 0    -13.038   -9.364     9.118    L 
 C(PDBName=C11,ResName=MOL,ResNum=1) 0    -11.866   -7.619     7.958    L 
 C(PDBName=C12,ResName=MOL,ResNum=1) 0    -11.632   -9.251     9.751    L 
 C(PDBName=C13,ResName=MOL,ResNum=1) 0    -13.774   -6.957     9.503    L 
 C(PDBName=C14,ResName=MOL,ResNum=1) 0    -6.533    -11.138    9.4      L 
 C(PDBName=C15,ResName=MOL,ResNum=1) 0    -14.962   -7.493     10.3     L 
 C(PDBName=C16,ResName=MOL,ResNum=1) 0    -5.705    -12.057    10.256   L 
 C(PDBName=C17,ResName=MOL,ResNum=1) 0    -7.134    -11.752    10.626   L 
 C(PDBName=C18,ResName=MOL,ResNum=1) 0    -14.583   -8.804     10.981   L 
 C(PDBName=C19,ResName=MOL,ResNum=1) 0    -9.594    -7.98      9.015    L 
 C(PDBName=C20,ResName=MOL,ResNum=1) 0    -7.242    -8.713     9.276    L 
 C(PDBName=C21,ResName=MOL,ResNum=1) 0    -8.608    -9.002     9.019    L 
 C(PDBName=C22,ResName=MOL,ResNum=1) 0    -6.838    -7.363     9.401    L 
 C(PDBName=C23,ResName=MOL,ResNum=1) 0    -9.12     -6.656     9.154    L 
 C(PDBName=C24,ResName=MOL,ResNum=1) 0    -4.943    -9.333     9.489    L 
 C(PDBName=C25,ResName=MOL,ResNum=1) 0    -7.798    -6.346     9.328    L 
 C(PDBName=C26,ResName=MOL,ResNum=1) 0    -4.475    -8.046     9.599    L 
 C(PDBName=C27,ResName=MOL,ResNum=1) 0    -5.421    -6.938     9.587    L 
 C(PDBName=C28,ResName=MOL,ResNum=1) 0    -3.007    -7.958     9.743    L 
 C(PDBName=C29,ResName=MOL,ResNum=1) 0    -9.443    -10.55     7.424    L 
 H(PDBName=H30,ResName=MOL,ResNum=1) 0    -13.979   -8.067     7.65     L 
 H(PDBName=H31,ResName=MOL,ResNum=1) 0    -12.975   -10.104    8.303    L 
 H(PDBName=H32,ResName=MOL,ResNum=1) 0    -11.714   -8.007     6.931    L 
 H(PDBName=H33,ResName=MOL,ResNum=1) 0    -11.709   -6.533     7.924    L 
 H(PDBName=H34,ResName=MOL,ResNum=1) 0    -11.691   -8.886     10.794   L 
 H(PDBName=H35,ResName=MOL,ResNum=1) 0    -11.116   -10.222    9.77     L 
 H(PDBName=H36,ResName=MOL,ResNum=1) 0    -14.041   -6.024     8.984    L 
 H(PDBName=H37,ResName=MOL,ResNum=1) 0    -12.96    -6.7       10.201   L 
 H(PDBName=H38,ResName=MOL,ResNum=1) 0    -6.861    -11.534    8.44     L 
 H(PDBName=H39,ResName=MOL,ResNum=1) 0    -15.279   -6.758     11.056   L 
 H(PDBName=H40,ResName=MOL,ResNum=1) 0    -15.822   -7.666     9.635    L 
 H(PDBName=H41,ResName=MOL,ResNum=1) 0    -13.976   -10.699    10.38    L 
 H(PDBName=H42,ResName=MOL,ResNum=1) 0    -4.928    -11.637    10.892   L 
 H(PDBName=H43,ResName=MOL,ResNum=1) 0    -5.459    -13.032    9.838    L 
 H(PDBName=H44,ResName=MOL,ResNum=1) 0    -7.909    -12.502    10.489   L 
 H(PDBName=H45,ResName=MOL,ResNum=1) 0    -7.286    -11.091    11.478   L 
 H(PDBName=H46,ResName=MOL,ResNum=1) 0    -13.815   -8.592     11.759   L 
 H(PDBName=H47,ResName=MOL,ResNum=1) 0    -15.451   -9.24      11.499   L 
 H(PDBName=H48,ResName=MOL,ResNum=1) 0    -4.217    -10.144    9.512    L 
 H(PDBName=H49,ResName=MOL,ResNum=1) 0    -7.462    -5.317     9.458    L 
 H(PDBName=H50,ResName=MOL,ResNum=1) 0    -8.603    -10.425    6.721    L 
 H(PDBName=H51,ResName=MOL,ResNum=1) 0    -10.262   -9.877     7.135    L 
 H(PDBName=H52,ResName=MOL,ResNum=1) 0    -9.794    -11.588    7.401    L 
 H(PDBName=H53,ResName=MOL,ResNum=1) 0    -1.534    -6.823     9.907    L 
 
 Center=     -9.39809434     -8.82715094      9.41622642
 Residue   1 PDB Number     1_0 MOL charge    0.00000000 layers R        AvRTP=      0.00000000      0.00000000    180.00000000

 GradGradGradGradGradGradGradGradGradGradGradGradGradGradGradGradGradGrad
 Berny optimization.
 Initialization pass.
                           ----------------------------
                           !    Initial Parameters    !
                           ! (Angstroms and Degrees)  !
 --------------------------                            --------------------------
 ! Name  Definition              Value          Derivative Info.                !
 --------------------------------------------------------------------------------
 ! R1    R(1,23)                 1.3715         estimate D2E/DX2                !
 ! R2    R(2,21)                 1.382          estimate D2E/DX2                !
 ! R3    R(2,29)                 1.4399         estimate D2E/DX2                !
 ! R4    R(3,27)                 1.2451         estimate D2E/DX2                !
 ! R5    R(4,28)                 1.3574         estimate D2E/DX2                !
 ! R6    R(4,53)                 0.9853         estimate D2E/DX2                !
 ! R7    R(5,28)                 1.2358         estimate D2E/DX2                !
 ! R8    R(6,11)                 1.4707         estimate D2E/DX2                !
 ! R9    R(6,12)                 1.4652         estimate D2E/DX2                !
 ! R10   R(6,19)                 1.3892         estimate D2E/DX2                !
 ! R11   R(7,10)                 1.4562         estimate D2E/DX2                !
 ! R12   R(7,18)                 1.4646         estimate D2E/DX2                !
 ! R13   R(7,41)                 1.0277         estimate D2E/DX2                !
 ! R14   R(8,14)                 1.4588         estimate D2E/DX2                !
 ! R15   R(8,20)                 1.4154         estimate D2E/DX2                !
 ! R16   R(8,24)                 1.3563         estimate D2E/DX2                !
 ! R17   R(9,10)                 1.5421         estimate D2E/DX2                !
 ! R18   R(9,11)                 1.53           estimate D2E/DX2                !
 ! R19   R(9,13)                 1.535          estimate D2E/DX2                !
 ! R20   R(9,30)                 1.1016         estimate D2E/DX2                !
 ! R21   R(10,12)                1.5461         estimate D2E/DX2                !
 ! R22   R(10,31)                1.1026         estimate D2E/DX2                !
 ! R23   R(11,32)                1.1083         estimate D2E/DX2                !
 ! R24   R(11,33)                1.0978         estimate D2E/DX2                !
 ! R25   R(12,34)                1.1066         estimate D2E/DX2                !
 ! R26   R(12,35)                1.0998         estimate D2E/DX2                !
 ! R27   R(13,15)                1.5277         estimate D2E/DX2                !
 ! R28   R(13,36)                1.1005         estimate D2E/DX2                !
 ! R29   R(13,37)                1.1027         estimate D2E/DX2                !
 ! R30   R(14,16)                1.5043         estimate D2E/DX2                !
 ! R31   R(14,17)                1.4971         estimate D2E/DX2                !
 ! R32   R(14,38)                1.089          estimate D2E/DX2                !
 ! R33   R(15,18)                1.5252         estimate D2E/DX2                !
 ! R34   R(15,39)                1.101          estimate D2E/DX2                !
 ! R35   R(15,40)                1.1008         estimate D2E/DX2                !
 ! R36   R(16,17)                1.5073         estimate D2E/DX2                !
 ! R37   R(16,42)                1.0884         estimate D2E/DX2                !
 ! R38   R(16,43)                1.089          estimate D2E/DX2                !
 ! R39   R(17,44)                1.0871         estimate D2E/DX2                !
 ! R40   R(17,45)                1.089          estimate D2E/DX2                !
 ! R41   R(18,46)                1.1136         estimate D2E/DX2                !
 ! R42   R(18,47)                1.1008         estimate D2E/DX2                !
 ! R43   R(19,21)                1.4201         estimate D2E/DX2                !
 ! R44   R(19,23)                1.4131         estimate D2E/DX2                !
 ! R45   R(20,21)                1.4197         estimate D2E/DX2                !
 ! R46   R(20,22)                1.4147         estimate D2E/DX2                !
 ! R47   R(22,25)                1.4004         estimate D2E/DX2                !
 ! R48   R(22,27)                1.491          estimate D2E/DX2                !
 ! R49   R(23,25)                1.369          estimate D2E/DX2                !
 ! R50   R(24,26)                1.3739         estimate D2E/DX2                !
 ! R51   R(24,48)                1.0887         estimate D2E/DX2                !
 ! R52   R(25,49)                1.0902         estimate D2E/DX2                !
 ! R53   R(26,27)                1.457          estimate D2E/DX2                !
 ! R54   R(26,28)                1.4777         estimate D2E/DX2                !
 ! R55   R(29,50)                1.1025         estimate D2E/DX2                !
 ! R56   R(29,51)                1.0987         estimate D2E/DX2                !
 ! R57   R(29,52)                1.096          estimate D2E/DX2                !
 ! A1    A(21,2,29)            114.5611         estimate D2E/DX2                !
 ! A2    A(28,4,53)            104.5414         estimate D2E/DX2                !
 ! A3    A(11,6,12)            112.1248         estimate D2E/DX2                !
 ! A4    A(11,6,19)            124.5406         estimate D2E/DX2                !
 ! A5    A(12,6,19)            123.2812         estimate D2E/DX2                !
 ! A6    A(10,7,18)            116.5416         estimate D2E/DX2                !
 ! A7    A(10,7,41)            111.1123         estimate D2E/DX2                !
 ! A8    A(18,7,41)            111.8307         estimate D2E/DX2                !
 ! A9    A(14,8,20)            123.2998         estimate D2E/DX2                !
 ! A10   A(14,8,24)            117.4862         estimate D2E/DX2                !
 ! A11   A(20,8,24)            119.1818         estimate D2E/DX2                !
 ! A12   A(10,9,11)            102.798          estimate D2E/DX2                !
 ! A13   A(10,9,13)            111.6825         estimate D2E/DX2                !
 ! A14   A(10,9,30)            109.4433         estimate D2E/DX2                !
 ! A15   A(11,9,13)            112.1211         estimate D2E/DX2                !
 ! A16   A(11,9,30)            110.9635         estimate D2E/DX2                !
 ! A17   A(13,9,30)            109.6619         estimate D2E/DX2                !
 ! A18   A(7,10,9)             112.6606         estimate D2E/DX2                !
 ! A19   A(7,10,12)            118.142          estimate D2E/DX2                !
 ! A20   A(7,10,31)            106.8186         estimate D2E/DX2                !
 ! A21   A(9,10,12)            103.5497         estimate D2E/DX2                !
 ! A22   A(9,10,31)            107.7637         estimate D2E/DX2                !
 ! A23   A(12,10,31)           107.4406         estimate D2E/DX2                !
 ! A24   A(6,11,9)             104.2953         estimate D2E/DX2                !
 ! A25   A(6,11,32)            110.4773         estimate D2E/DX2                !
 ! A26   A(6,11,33)            111.896          estimate D2E/DX2                !
 ! A27   A(9,11,32)            110.9939         estimate D2E/DX2                !
 ! A28   A(9,11,33)            111.8932         estimate D2E/DX2                !
 ! A29   A(32,11,33)           107.3375         estimate D2E/DX2                !
 ! A30   A(6,12,10)            103.6509         estimate D2E/DX2                !
 ! A31   A(6,12,34)            110.7572         estimate D2E/DX2                !
 ! A32   A(6,12,35)            112.1669         estimate D2E/DX2                !
 ! A33   A(10,12,34)           111.1936         estimate D2E/DX2                !
 ! A34   A(10,12,35)           111.6683         estimate D2E/DX2                !
 ! A35   A(34,12,35)           107.455          estimate D2E/DX2                !
 ! A36   A(9,13,15)            112.0588         estimate D2E/DX2                !
 ! A37   A(9,13,36)            109.3109         estimate D2E/DX2                !
 ! A38   A(9,13,37)            109.2468         estimate D2E/DX2                !
 ! A39   A(15,13,36)           110.7821         estimate D2E/DX2                !
 ! A40   A(15,13,37)           109.0019         estimate D2E/DX2                !
 ! A41   A(36,13,37)           106.2622         estimate D2E/DX2                !
 ! A42   A(8,14,16)            119.9209         estimate D2E/DX2                !
 ! A43   A(8,14,17)            119.8196         estimate D2E/DX2                !
 ! A44   A(8,14,38)            113.589          estimate D2E/DX2                !
 ! A45   A(16,14,38)           116.4394         estimate D2E/DX2                !
 ! A46   A(17,14,38)           116.8624         estimate D2E/DX2                !
 ! A47   A(13,15,18)           109.9555         estimate D2E/DX2                !
 ! A48   A(13,15,39)           110.3586         estimate D2E/DX2                !
 ! A49   A(13,15,40)           110.3352         estimate D2E/DX2                !
 ! A50   A(18,15,39)           109.8025         estimate D2E/DX2                !
 ! A51   A(18,15,40)           109.1953         estimate D2E/DX2                !
 ! A52   A(39,15,40)           107.1444         estimate D2E/DX2                !
 ! A53   A(14,16,42)           119.3216         estimate D2E/DX2                !
 ! A54   A(14,16,43)           116.9297         estimate D2E/DX2                !
 ! A55   A(17,16,42)           117.083          estimate D2E/DX2                !
 ! A56   A(17,16,43)           119.3116         estimate D2E/DX2                !
 ! A57   A(42,16,43)           114.1124         estimate D2E/DX2                !
 ! A58   A(14,17,44)           117.7698         estimate D2E/DX2                !
 ! A59   A(14,17,45)           116.6021         estimate D2E/DX2                !
 ! A60   A(16,17,44)           120.352          estimate D2E/DX2                !
 ! A61   A(16,17,45)           116.5639         estimate D2E/DX2                !
 ! A62   A(44,17,45)           114.6977         estimate D2E/DX2                !
 ! A63   A(7,18,15)            109.5265         estimate D2E/DX2                !
 ! A64   A(7,18,46)            113.6261         estimate D2E/DX2                !
 ! A65   A(7,18,47)            107.3664         estimate D2E/DX2                !
 ! A66   A(15,18,46)           108.6442         estimate D2E/DX2                !
 ! A67   A(15,18,47)           110.7698         estimate D2E/DX2                !
 ! A68   A(46,18,47)           106.8848         estimate D2E/DX2                !
 ! A69   A(6,19,21)            121.474          estimate D2E/DX2                !
 ! A70   A(6,19,23)            122.3467         estimate D2E/DX2                !
 ! A71   A(21,19,23)           116.1742         estimate D2E/DX2                !
 ! A72   A(8,20,21)            123.3412         estimate D2E/DX2                !
 ! A73   A(8,20,22)            117.6121         estimate D2E/DX2                !
 ! A74   A(21,20,22)           119.0143         estimate D2E/DX2                !
 ! A75   A(2,21,19)            118.3915         estimate D2E/DX2                !
 ! A76   A(2,21,20)            120.136          estimate D2E/DX2                !
 ! A77   A(19,21,20)           121.471          estimate D2E/DX2                !
 ! A78   A(20,22,25)           119.5135         estimate D2E/DX2                !
 ! A79   A(20,22,27)           123.6715         estimate D2E/DX2                !
 ! A80   A(25,22,27)           116.8065         estimate D2E/DX2                !
 ! A81   A(1,23,19)            118.1249         estimate D2E/DX2                !
 ! A82   A(1,23,25)            118.5599         estimate D2E/DX2                !
 ! A83   A(19,23,25)           123.2698         estimate D2E/DX2                !
 ! A84   A(8,24,26)            126.3371         estimate D2E/DX2                !
 ! A85   A(8,24,48)            115.6874         estimate D2E/DX2                !
 ! A86   A(26,24,48)           117.9672         estimate D2E/DX2                !
 ! A87   A(22,25,23)           120.2758         estimate D2E/DX2                !
 ! A88   A(22,25,49)           117.9            estimate D2E/DX2                !
 ! A89   A(23,25,49)           121.7691         estimate D2E/DX2                !
 ! A90   A(24,26,27)           119.3779         estimate D2E/DX2                !
 ! A91   A(24,26,28)           113.7037         estimate D2E/DX2                !
 ! A92   A(27,26,28)           126.9102         estimate D2E/DX2                !
 ! A93   A(3,27,22)            120.6425         estimate D2E/DX2                !
 ! A94   A(3,27,26)            125.6934         estimate D2E/DX2                !
 ! A95   A(22,27,26)           113.6611         estimate D2E/DX2                !
 ! A96   A(4,28,5)             121.1805         estimate D2E/DX2                !
 ! A97   A(4,28,26)            115.2402         estimate D2E/DX2                !
 ! A98   A(5,28,26)            123.5792         estimate D2E/DX2                !
 ! A99   A(2,29,50)            110.3739         estimate D2E/DX2                !
 ! A100  A(2,29,51)            111.4881         estimate D2E/DX2                !
 ! A101  A(2,29,52)            106.2337         estimate D2E/DX2                !
 ! A102  A(50,29,51)           109.3156         estimate D2E/DX2                !
 ! A103  A(50,29,52)           109.7561         estimate D2E/DX2                !
 ! A104  A(51,29,52)           109.6258         estimate D2E/DX2                !
 ! D1    D(29,2,21,19)          69.0495         estimate D2E/DX2                !
 ! D2    D(29,2,21,20)        -111.3828         estimate D2E/DX2                !
 ! D3    D(21,2,29,50)          65.1103         estimate D2E/DX2                !
 ! D4    D(21,2,29,51)         -56.5851         estimate D2E/DX2                !
 ! D5    D(21,2,29,52)        -175.9637         estimate D2E/DX2                !
 ! D6    D(53,4,28,5)           -0.4534         estimate D2E/DX2                !
 ! D7    D(53,4,28,26)         179.4876         estimate D2E/DX2                !
 ! D8    D(12,6,11,9)           13.3293         estimate D2E/DX2                !
 ! D9    D(12,6,11,32)        -105.9987         estimate D2E/DX2                !
 ! D10   D(12,6,11,33)         134.4686         estimate D2E/DX2                !
 ! D11   D(19,6,11,9)         -164.08           estimate D2E/DX2                !
 ! D12   D(19,6,11,32)          76.592          estimate D2E/DX2                !
 ! D13   D(19,6,11,33)         -42.9407         estimate D2E/DX2                !
 ! D14   D(11,6,12,10)           9.9142         estimate D2E/DX2                !
 ! D15   D(11,6,12,34)        -109.42           estimate D2E/DX2                !
 ! D16   D(11,6,12,35)         130.5274         estimate D2E/DX2                !
 ! D17   D(19,6,12,10)        -172.6384         estimate D2E/DX2                !
 ! D18   D(19,6,12,34)          68.0274         estimate D2E/DX2                !
 ! D19   D(19,6,12,35)         -52.0252         estimate D2E/DX2                !
 ! D20   D(11,6,19,21)        -131.1272         estimate D2E/DX2                !
 ! D21   D(11,6,19,23)          49.7271         estimate D2E/DX2                !
 ! D22   D(12,6,19,21)          51.7438         estimate D2E/DX2                !
 ! D23   D(12,6,19,23)        -127.4019         estimate D2E/DX2                !
 ! D24   D(18,7,10,9)          -50.6937         estimate D2E/DX2                !
 ! D25   D(18,7,10,12)          70.053          estimate D2E/DX2                !
 ! D26   D(18,7,10,31)        -168.8311         estimate D2E/DX2                !
 ! D27   D(41,7,10,9)          179.6306         estimate D2E/DX2                !
 ! D28   D(41,7,10,12)         -59.6227         estimate D2E/DX2                !
 ! D29   D(41,7,10,31)          61.4932         estimate D2E/DX2                !
 ! D30   D(10,7,18,15)          56.7285         estimate D2E/DX2                !
 ! D31   D(10,7,18,46)         -64.9642         estimate D2E/DX2                !
 ! D32   D(10,7,18,47)         177.0687         estimate D2E/DX2                !
 ! D33   D(41,7,18,15)        -173.9386         estimate D2E/DX2                !
 ! D34   D(41,7,18,46)          64.3688         estimate D2E/DX2                !
 ! D35   D(41,7,18,47)         -53.5983         estimate D2E/DX2                !
 ! D36   D(20,8,14,16)        -143.764          estimate D2E/DX2                !
 ! D37   D(20,8,14,17)         -72.9846         estimate D2E/DX2                !
 ! D38   D(20,8,14,38)          71.9573         estimate D2E/DX2                !
 ! D39   D(24,8,14,16)          34.1533         estimate D2E/DX2                !
 ! D40   D(24,8,14,17)         104.9327         estimate D2E/DX2                !
 ! D41   D(24,8,14,38)        -110.1254         estimate D2E/DX2                !
 ! D42   D(14,8,20,21)          -8.5909         estimate D2E/DX2                !
 ! D43   D(14,8,20,22)         173.5041         estimate D2E/DX2                !
 ! D44   D(24,8,20,21)         173.5253         estimate D2E/DX2                !
 ! D45   D(24,8,20,22)          -4.3797         estimate D2E/DX2                !
 ! D46   D(14,8,24,26)        -174.1402         estimate D2E/DX2                !
 ! D47   D(14,8,24,48)           4.7789         estimate D2E/DX2                !
 ! D48   D(20,8,24,26)           3.8661         estimate D2E/DX2                !
 ! D49   D(20,8,24,48)        -177.2149         estimate D2E/DX2                !
 ! D50   D(11,9,10,7)          165.7313         estimate D2E/DX2                !
 ! D51   D(11,9,10,12)          36.949          estimate D2E/DX2                !
 ! D52   D(11,9,10,31)         -76.688          estimate D2E/DX2                !
 ! D53   D(13,9,10,7)           45.3417         estimate D2E/DX2                !
 ! D54   D(13,9,10,12)         -83.4407         estimate D2E/DX2                !
 ! D55   D(13,9,10,31)         162.9224         estimate D2E/DX2                !
 ! D56   D(30,9,10,7)          -76.2821         estimate D2E/DX2                !
 ! D57   D(30,9,10,12)         154.9355         estimate D2E/DX2                !
 ! D58   D(30,9,10,31)          41.2986         estimate D2E/DX2                !
 ! D59   D(10,9,11,6)          -30.8464         estimate D2E/DX2                !
 ! D60   D(10,9,11,32)          88.131          estimate D2E/DX2                !
 ! D61   D(10,9,11,33)        -151.9876         estimate D2E/DX2                !
 ! D62   D(13,9,11,6)           89.2409         estimate D2E/DX2                !
 ! D63   D(13,9,11,32)        -151.7818         estimate D2E/DX2                !
 ! D64   D(13,9,11,33)         -31.9004         estimate D2E/DX2                !
 ! D65   D(30,9,11,6)         -147.7558         estimate D2E/DX2                !
 ! D66   D(30,9,11,32)         -28.7784         estimate D2E/DX2                !
 ! D67   D(30,9,11,33)          91.103          estimate D2E/DX2                !
 ! D68   D(10,9,13,15)         -49.5437         estimate D2E/DX2                !
 ! D69   D(10,9,13,36)        -172.7501         estimate D2E/DX2                !
 ! D70   D(10,9,13,37)          71.3601         estimate D2E/DX2                !
 ! D71   D(11,9,13,15)        -164.3114         estimate D2E/DX2                !
 ! D72   D(11,9,13,36)          72.4823         estimate D2E/DX2                !
 ! D73   D(11,9,13,37)         -43.4075         estimate D2E/DX2                !
 ! D74   D(30,9,13,15)          71.9537         estimate D2E/DX2                !
 ! D75   D(30,9,13,36)         -51.2527         estimate D2E/DX2                !
 ! D76   D(30,9,13,37)        -167.1425         estimate D2E/DX2                !
 ! D77   D(7,10,12,6)         -154.2571         estimate D2E/DX2                !
 ! D78   D(7,10,12,34)         -35.2225         estimate D2E/DX2                !
 ! D79   D(7,10,12,35)          84.7929         estimate D2E/DX2                !
 ! D80   D(9,10,12,6)          -28.9233         estimate D2E/DX2                !
 ! D81   D(9,10,12,34)          90.1114         estimate D2E/DX2                !
 ! D82   D(9,10,12,35)        -149.8733         estimate D2E/DX2                !
 ! D83   D(31,10,12,6)          84.9466         estimate D2E/DX2                !
 ! D84   D(31,10,12,34)       -156.0188         estimate D2E/DX2                !
 ! D85   D(31,10,12,35)        -36.0034         estimate D2E/DX2                !
 ! D86   D(9,13,15,18)          56.1361         estimate D2E/DX2                !
 ! D87   D(9,13,15,39)         177.4125         estimate D2E/DX2                !
 ! D88   D(9,13,15,40)         -64.3684         estimate D2E/DX2                !
 ! D89   D(36,13,15,18)        178.5091         estimate D2E/DX2                !
 ! D90   D(36,13,15,39)        -60.2144         estimate D2E/DX2                !
 ! D91   D(36,13,15,40)         58.0046         estimate D2E/DX2                !
 ! D92   D(37,13,15,18)        -64.9092         estimate D2E/DX2                !
 ! D93   D(37,13,15,39)         56.3672         estimate D2E/DX2                !
 ! D94   D(37,13,15,40)        174.5863         estimate D2E/DX2                !
 ! D95   D(8,14,16,42)           3.3795         estimate D2E/DX2                !
 ! D96   D(8,14,16,43)        -140.801          estimate D2E/DX2                !
 ! D97   D(38,14,16,42)        146.6843         estimate D2E/DX2                !
 ! D98   D(38,14,16,43)          2.5038         estimate D2E/DX2                !
 ! D99   D(8,14,17,44)         139.5835         estimate D2E/DX2                !
 ! D100  D(8,14,17,45)          -2.7739         estimate D2E/DX2                !
 ! D101  D(38,14,17,44)         -4.2537         estimate D2E/DX2                !
 ! D102  D(38,14,17,45)       -146.611          estimate D2E/DX2                !
 ! D103  D(13,15,18,7)         -57.6221         estimate D2E/DX2                !
 ! D104  D(13,15,18,46)         67.0185         estimate D2E/DX2                !
 ! D105  D(13,15,18,47)       -175.8649         estimate D2E/DX2                !
 ! D106  D(39,15,18,7)        -179.2311         estimate D2E/DX2                !
 ! D107  D(39,15,18,46)        -54.5905         estimate D2E/DX2                !
 ! D108  D(39,15,18,47)         62.5261         estimate D2E/DX2                !
 ! D109  D(40,15,18,7)          63.5682         estimate D2E/DX2                !
 ! D110  D(40,15,18,46)       -171.7912         estimate D2E/DX2                !
 ! D111  D(40,15,18,47)        -54.6746         estimate D2E/DX2                !
 ! D112  D(42,16,17,44)       -143.6369         estimate D2E/DX2                !
 ! D113  D(42,16,17,45)          2.8866         estimate D2E/DX2                !
 ! D114  D(43,16,17,44)          0.7831         estimate D2E/DX2                !
 ! D115  D(43,16,17,45)        147.3066         estimate D2E/DX2                !
 ! D116  D(6,19,21,2)            6.1465         estimate D2E/DX2                !
 ! D117  D(6,19,21,20)        -173.4151         estimate D2E/DX2                !
 ! D118  D(23,19,21,2)        -174.6576         estimate D2E/DX2                !
 ! D119  D(23,19,21,20)          5.7808         estimate D2E/DX2                !
 ! D120  D(6,19,23,1)           -0.3982         estimate D2E/DX2                !
 ! D121  D(6,19,23,25)         177.1104         estimate D2E/DX2                !
 ! D122  D(21,19,23,1)        -179.5864         estimate D2E/DX2                !
 ! D123  D(21,19,23,25)         -2.0778         estimate D2E/DX2                !
 ! D124  D(8,20,21,2)           -3.6697         estimate D2E/DX2                !
 ! D125  D(8,20,21,19)         175.8843         estimate D2E/DX2                !
 ! D126  D(22,20,21,2)         174.2075         estimate D2E/DX2                !
 ! D127  D(22,20,21,19)         -6.2385         estimate D2E/DX2                !
 ! D128  D(8,20,22,25)        -179.2101         estimate D2E/DX2                !
 ! D129  D(8,20,22,27)           1.8819         estimate D2E/DX2                !
 ! D130  D(21,20,22,25)          2.7912         estimate D2E/DX2                !
 ! D131  D(21,20,22,27)       -176.1168         estimate D2E/DX2                !
 ! D132  D(20,22,25,23)          0.8266         estimate D2E/DX2                !
 ! D133  D(20,22,25,49)        178.174          estimate D2E/DX2                !
 ! D134  D(27,22,25,23)        179.8084         estimate D2E/DX2                !
 ! D135  D(27,22,25,49)         -2.8442         estimate D2E/DX2                !
 ! D136  D(20,22,27,3)        -179.2923         estimate D2E/DX2                !
 ! D137  D(20,22,27,26)          1.3061         estimate D2E/DX2                !
 ! D138  D(25,22,27,3)           1.7724         estimate D2E/DX2                !
 ! D139  D(25,22,27,26)       -177.6293         estimate D2E/DX2                !
 ! D140  D(1,23,25,22)         176.3192         estimate D2E/DX2                !
 ! D141  D(1,23,25,49)          -0.9234         estimate D2E/DX2                !
 ! D142  D(19,23,25,22)         -1.1792         estimate D2E/DX2                !
 ! D143  D(19,23,25,49)       -178.4217         estimate D2E/DX2                !
 ! D144  D(8,24,26,27)          -0.4173         estimate D2E/DX2                !
 ! D145  D(8,24,26,28)         178.6179         estimate D2E/DX2                !
 ! D146  D(48,24,26,27)       -179.3144         estimate D2E/DX2                !
 ! D147  D(48,24,26,28)         -0.2791         estimate D2E/DX2                !
 ! D148  D(24,26,27,3)         178.5533         estimate D2E/DX2                !
 ! D149  D(24,26,27,22)         -2.0805         estimate D2E/DX2                !
 ! D150  D(28,26,27,3)          -0.3419         estimate D2E/DX2                !
 ! D151  D(28,26,27,22)        179.0243         estimate D2E/DX2                !
 ! D152  D(24,26,28,4)         177.6906         estimate D2E/DX2                !
 ! D153  D(24,26,28,5)          -2.37           estimate D2E/DX2                !
 ! D154  D(27,26,28,4)          -3.3609         estimate D2E/DX2                !
 ! D155  D(27,26,28,5)         176.5786         estimate D2E/DX2                !
 --------------------------------------------------------------------------------
 Trust Radius=3.00D-01 FncErr=1.00D-07 GrdErr=1.00D-06
 Number of steps in this run=    318 maximum allowed number of steps=    318.
 GradGradGradGradGradGradGradGradGradGradGradGradGradGradGradGradGradGrad

 Stoichiometry    C21H24FN3O4
 Framework group  C1[X(C21H24FN3O4)]
 Deg. of freedom   153
 Full point group                 C1      NOp   1
 Largest Abelian subgroup         C1      NOp   1
 Largest concise Abelian subgroup C1      NOp   1
                         Standard orientation:                         
 ---------------------------------------------------------------------
 Center     Atomic      Atomic             Coordinates (Angstroms)
 Number     Number       Type             X           Y           Z
 ---------------------------------------------------------------------
      1          9           0       -1.392038   -2.873950    0.114691
      2          8           0       -0.295823    1.754697    0.699412
      3          8           0        3.527215   -2.839015   -0.330997
      4          8           0        6.167428   -1.913915   -0.347230
      5          8           0        6.442511    0.327324   -0.258972
      6          7           0       -2.262547   -0.232299    0.463430
      7          7           0       -5.416827    1.352958   -0.612021
      8          7           0        2.472440    1.139417    0.129418
      9          6           0       -4.587478   -0.508950    0.828248
     10          6           0       -4.332740    0.896218    0.246209
     11          6           0       -3.210405   -0.909929    1.360841
     12          6           0       -2.916914    0.784051   -0.364651
     13          6           0       -5.098846   -1.482322   -0.242869
     14          6           0        2.203386    2.573006    0.151032
     15          6           0       -6.262974   -0.897502   -1.040767
     16          6           0        3.061758    3.509775   -0.654290
     17          6           0        1.635446    3.242241   -1.061751
     18          6           0       -5.850659    0.431721   -1.664696
     19          6           0       -0.913379   -0.546760    0.360174
     20          6           0        1.454327    0.156972    0.170321
     21          6           0        0.088380    0.458424    0.412894
     22          6           0        1.839467   -1.193818    0.001883
     23          6           0       -0.457587   -1.872192    0.180017
     24          6           0        3.766370    0.746867    0.023185
     25          6           0        0.862469   -2.197017    0.018769
     26          6           0        4.216192   -0.542584   -0.126711
     27          6           0        3.252924   -1.634650   -0.173950
     28          6           0        5.685106   -0.649104   -0.246918
     29          6           0       -0.752444    1.959025    2.049588
     30          1           0       -5.321608   -0.439314    1.646640
     31          1           0       -4.273661    1.604040    1.089590
     32          1           0       -3.071882   -0.563209    2.404380
     33          1           0       -3.071080   -1.998861    1.356691
     34          1           0       -2.961802    0.459391   -1.421598
     35          1           0       -2.385526    1.746519   -0.337484
     36          1           0       -5.390209   -2.429622    0.235535
     37          1           0       -4.275859   -1.726261   -0.934993
     38          1           0        1.863452    2.938073    1.119108
     39          1           0       -6.577018   -1.598387   -1.829681
     40          1           0       -7.132634   -0.735505   -0.385632
     41          1           0       -5.225620    2.292705   -0.981513
     42          1           0        3.844031    3.101255   -1.291303
     43          1           0        3.314994    4.464282   -0.195320
     44          1           0        0.869807    3.999146   -0.910800
     45          1           0        1.489332    2.616193   -1.940753
     46          1           0       -5.071435    0.236493   -2.435896
     47          1           0       -6.701744    0.900944   -2.181733
     48          1           0        4.505269    1.546188    0.044175
     49          1           0        1.184745   -3.225777   -0.143794
     50          1           0        0.072001    1.794069    2.762691
     51          1           0       -1.587207    1.289144    2.297864
     52          1           0       -1.087543    3.001032    2.105310
     53          1           0        7.143025   -1.801081   -0.426551
 ---------------------------------------------------------------------
 Rotational constants (GHZ):      0.3536786      0.0866935      0.0743657
 Standard basis: 3-21G (6D, 7F)
 There are   309 symmetry adapted cartesian basis functions of A   symmetry.
 There are   309 symmetry adapted basis functions of A   symmetry.
   309 basis functions,   507 primitive gaussians,   309 cartesian basis functions
   106 alpha electrons      106 beta electrons
       nuclear repulsion energy      2870.2529636534 Hartrees.
 NAtoms=   53 NActive=   53 NUniq=   53 SFac= 1.00D+00 NAtFMM=   60 NAOKFM=F Big=F
 Integral buffers will be    131072 words long.
 Raffenetti 2 integral format.
 Two-electron integral symmetry is turned on.
 One-electron integrals computed using PRISM.
 PrsmSu:  requested number of processors reduced to:   9 ShMem   1 Linda.
 NBasis=   309 RedAO= T EigKep=  1.19D-03  NBF=   309
 NBsUse=   309 1.00D-06 EigRej= -1.00D+00 NBFU=   309
 ExpMin= 1.83D-01 ExpMax= 4.14D+02 ExpMxC= 4.14D+02 IAcc=1 IRadAn=         1 AccDes= 0.00D+00
 Harris functional with IExCor=  402 and IRadAn=       1 diagonalized for initial guess.
 HarFok:  IExCor=  402 AccDes= 0.00D+00 IRadAn=         1 IDoV= 1 UseB2=F ITyADJ=14
 ICtDFT=  3500011 ScaDFX=  1.000000  1.000000  1.000000  1.000000
 FoFCou: FMM=F IPFlag=           0 FMFlag=      100000 FMFlg1=           0
         NFxFlg=           0 DoJE=T BraDBF=F KetDBF=T FulRan=T
         wScrn=  0.000000 ICntrl=     500 IOpCl=  0 I1Cent=   200000004 NGrid=           0
         NMat0=    1 NMatS0=      1 NMatT0=    0 NMatD0=    1 NMtDS0=    0 NMtDT0=    0
 Petite list used in FoFCou.
 Requested convergence on RMS density matrix=1.00D-08 within 128 cycles.
 Requested convergence on MAX density matrix=1.00D-06.
 Requested convergence on             energy=1.00D-06.
 No special actions if energy rises.
 Integral accuracy reduced to 1.0D-05 until final iterations.
 Initial convergence to 1.0D-05 achieved.  Increase integral accuracy.
 SCF Done:  E(RB3LYP) =  -1372.06414062     A.U. after   17 cycles
            NFock= 17  Conv=0.51D-08     -V/T= 2.0081

 **********************************************************************

            Population analysis using the SCF density.

 **********************************************************************

 Orbital symmetries:
       Occupied  (A) (A) (A) (A) (A) (A) (A) (A) (A) (A) (A) (A)
                 (A) (A) (A) (A) (A) (A) (A) (A) (A) (A) (A) (A)
                 (A) (A) (A) (A) (A) (A) (A) (A) (A) (A) (A) (A)
                 (A) (A) (A) (A) (A) (A) (A) (A) (A) (A) (A) (A)
                 (A) (A) (A) (A) (A) (A) (A) (A) (A) (A) (A) (A)
                 (A) (A) (A) (A) (A) (A) (A) (A) (A) (A) (A) (A)
                 (A) (A) (A) (A) (A) (A) (A) (A) (A) (A) (A) (A)
                 (A) (A) (A) (A) (A) (A) (A) (A) (A) (A) (A) (A)
                 (A) (A) (A) (A) (A) (A) (A) (A) (A) (A)
       Virtual   (A) (A) (A) (A) (A) (A) (A) (A) (A) (A) (A) (A)
                 (A) (A) (A) (A) (A) (A) (A) (A) (A) (A) (A) (A)
                 (A) (A) (A) (A) (A) (A) (A) (A) (A) (A) (A) (A)
                 (A) (A) (A) (A) (A) (A) (A) (A) (A) (A) (A) (A)
                 (A) (A) (A) (A) (A) (A) (A) (A) (A) (A) (A) (A)
                 (A) (A) (A) (A) (A) (A) (A) (A) (A) (A) (A) (A)
                 (A) (A) (A) (A) (A) (A) (A) (A) (A) (A) (A) (A)
                 (A) (A) (A) (A) (A) (A) (A) (A) (A) (A) (A) (A)
                 (A) (A) (A) (A) (A) (A) (A) (A) (A) (A) (A) (A)
                 (A) (A) (A) (A) (A) (A) (A) (A) (A) (A) (A) (A)
                 (A) (A) (A) (A) (A) (A) (A) (A) (A) (A) (A) (A)
                 (A) (A) (A) (A) (A) (A) (A) (A) (A) (A) (A) (A)
                 (A) (A) (A) (A) (A) (A) (A) (A) (A) (A) (A) (A)
                 (A) (A) (A) (A) (A) (A) (A) (A) (A) (A) (A) (A)
                 (A) (A) (A) (A) (A) (A) (A) (A) (A) (A) (A) (A)
                 (A) (A) (A) (A) (A) (A) (A) (A) (A) (A) (A) (A)
                 (A) (A) (A) (A) (A) (A) (A) (A) (A) (A) (A)
 The electronic state is 1-A.
 Alpha  occ. eigenvalues --  -24.57187 -19.08020 -19.06742 -19.01041 -18.99355
 Alpha  occ. eigenvalues --  -14.34004 -14.27107 -14.23684 -10.24820 -10.21351
 Alpha  occ. eigenvalues --  -10.20407 -10.19790 -10.19537 -10.19071 -10.18955
 Alpha  occ. eigenvalues --  -10.18926 -10.18691 -10.15890 -10.15758 -10.15118
 Alpha  occ. eigenvalues --  -10.14827 -10.14765 -10.14561 -10.14208 -10.13545
 Alpha  occ. eigenvalues --  -10.13397 -10.13206 -10.11977 -10.11798  -1.20840
 Alpha  occ. eigenvalues --   -1.09720  -1.07923  -1.01550  -1.00729  -1.00098
 Alpha  occ. eigenvalues --   -0.95941  -0.91479  -0.89290  -0.86628  -0.81099
 Alpha  occ. eigenvalues --   -0.80786  -0.78677  -0.76837  -0.75364  -0.73035
 Alpha  occ. eigenvalues --   -0.71062  -0.68666  -0.67147  -0.65190  -0.64310
 Alpha  occ. eigenvalues --   -0.62038  -0.61730  -0.61178  -0.59855  -0.59415
 Alpha  occ. eigenvalues --   -0.55940  -0.55642  -0.54626  -0.54153  -0.52676
 Alpha  occ. eigenvalues --   -0.51777  -0.51399  -0.50611  -0.49718  -0.48078
 Alpha  occ. eigenvalues --   -0.47964  -0.47656  -0.45961  -0.45769  -0.45627
 Alpha  occ. eigenvalues --   -0.45099  -0.44630  -0.44499  -0.44005  -0.42975
 Alpha  occ. eigenvalues --   -0.42698  -0.42345  -0.41828  -0.41475  -0.40639
 Alpha  occ. eigenvalues --   -0.40266  -0.40003  -0.38985  -0.38484  -0.37849
 Alpha  occ. eigenvalues --   -0.37419  -0.37088  -0.36775  -0.36275  -0.35623
 Alpha  occ. eigenvalues --   -0.35260  -0.33959  -0.32966  -0.32814  -0.31947
 Alpha  occ. eigenvalues --   -0.31788  -0.31048  -0.29132  -0.28798  -0.27153
 Alpha  occ. eigenvalues --   -0.25713  -0.25300  -0.22153  -0.21262  -0.20838
 Alpha  occ. eigenvalues --   -0.20101
 Alpha virt. eigenvalues --   -0.03977  -0.03287   0.01199   0.04130   0.06791
 Alpha virt. eigenvalues --    0.08749   0.09903   0.10213   0.10479   0.11304
 Alpha virt. eigenvalues --    0.11499   0.12076   0.12552   0.13103   0.13396
 Alpha virt. eigenvalues --    0.14585   0.15050   0.15293   0.15670   0.15958
 Alpha virt. eigenvalues --    0.16251   0.16955   0.17484   0.18011   0.18134
 Alpha virt. eigenvalues --    0.18674   0.19171   0.19565   0.19890   0.20990
 Alpha virt. eigenvalues --    0.21171   0.21502   0.21664   0.22269   0.23443
 Alpha virt. eigenvalues --    0.23655   0.23812   0.24528   0.25254   0.25708
 Alpha virt. eigenvalues --    0.26787   0.27239   0.27492   0.27925   0.28393
 Alpha virt. eigenvalues --    0.28769   0.29575   0.30673   0.31125   0.32342
 Alpha virt. eigenvalues --    0.33264   0.34388   0.35145   0.37465   0.39500
 Alpha virt. eigenvalues --    0.41352   0.42116   0.45289   0.45585   0.51096
 Alpha virt. eigenvalues --    0.56143   0.57630   0.62139   0.63288   0.63645
 Alpha virt. eigenvalues --    0.65149   0.66009   0.66177   0.67947   0.68685
 Alpha virt. eigenvalues --    0.68982   0.69430   0.70053   0.70824   0.70993
 Alpha virt. eigenvalues --    0.71647   0.71836   0.72456   0.73234   0.73497
 Alpha virt. eigenvalues --    0.73728   0.73991   0.74942   0.75476   0.76088
 Alpha virt. eigenvalues --    0.76623   0.76841   0.77388   0.77856   0.78499
 Alpha virt. eigenvalues --    0.78861   0.79397   0.79791   0.80444   0.80773
 Alpha virt. eigenvalues --    0.81921   0.83092   0.84450   0.84887   0.86216
 Alpha virt. eigenvalues --    0.86729   0.87737   0.87978   0.89201   0.90908
 Alpha virt. eigenvalues --    0.92011   0.92585   0.93921   0.94828   0.95883
 Alpha virt. eigenvalues --    0.96102   0.98015   0.98975   0.99623   1.00136
 Alpha virt. eigenvalues --    1.01158   1.01776   1.02021   1.03111   1.03989
 Alpha virt. eigenvalues --    1.04589   1.05481   1.05513   1.06262   1.06534
 Alpha virt. eigenvalues --    1.07591   1.07995   1.08562   1.09135   1.10569
 Alpha virt. eigenvalues --    1.11323   1.11421   1.12671   1.13121   1.14859
 Alpha virt. eigenvalues --    1.15436   1.18964   1.19479   1.20509   1.22941
 Alpha virt. eigenvalues --    1.23598   1.27255   1.30232   1.30663   1.32519
 Alpha virt. eigenvalues --    1.35192   1.36617   1.37661   1.38771   1.40117
 Alpha virt. eigenvalues --    1.42042   1.44127   1.45113   1.46881   1.48048
 Alpha virt. eigenvalues --    1.49979   1.50860   1.53309   1.57578   1.59147
 Alpha virt. eigenvalues --    1.59527   1.61120   1.61754   1.62772   1.64563
 Alpha virt. eigenvalues --    1.66086   1.68346   1.69331   1.71310   1.72107
 Alpha virt. eigenvalues --    1.74048   1.75397   1.78560   1.79652   1.81737
 Alpha virt. eigenvalues --    1.84153   1.85059   1.88168   1.89568   1.91102
 Alpha virt. eigenvalues --    1.93025   1.94473   1.96094   1.98963   2.01933
 Alpha virt. eigenvalues --    2.03395   2.05660   2.07663   2.08540   2.16402
 Alpha virt. eigenvalues --    2.17192   2.24225   2.39700   2.43354   2.56276
 Alpha virt. eigenvalues --    2.77608   2.87284   2.96945   3.16491   3.43142
 Alpha virt. eigenvalues --    3.47771   3.58417   4.02487
          Condensed to atoms (all electrons):
 Mulliken charges:
               1
     1  F   -0.290697
     2  O   -0.554535
     3  O   -0.498194
     4  O   -0.542043
     5  O   -0.520776
     6  N   -0.707247
     7  N   -0.583761
     8  N   -0.853121
     9  C   -0.246167
    10  C   -0.040943
    11  C   -0.155819
    12  C   -0.173058
    13  C   -0.354945
    14  C   -0.028391
    15  C   -0.369560
    16  C   -0.408818
    17  C   -0.359196
    18  C   -0.203245
    19  C    0.288321
    20  C    0.363782
    21  C    0.296396
    22  C   -0.080397
    23  C    0.297312
    24  C    0.215821
    25  C   -0.202774
    26  C   -0.202678
    27  C    0.404269
    28  C    0.662508
    29  C   -0.339092
    30  H    0.200703
    31  H    0.202531
    32  H    0.179495
    33  H    0.212718
    34  H    0.195446
    35  H    0.204173
    36  H    0.192722
    37  H    0.199680
    38  H    0.226809
    39  H    0.186575
    40  H    0.196255
    41  H    0.269419
    42  H    0.226854
    43  H    0.217355
    44  H    0.211285
    45  H    0.224455
    46  H    0.159363
    47  H    0.196967
    48  H    0.263945
    49  H    0.239681
    50  H    0.193907
    51  H    0.220254
    52  H    0.206442
    53  H    0.360016
 Sum of Mulliken charges =   0.00000
 Mulliken charges with hydrogens summed into heavy atoms:
               1
     1  F   -0.290697
     2  O   -0.554535
     3  O   -0.498194
     4  O   -0.182027
     5  O   -0.520776
     6  N   -0.707247
     7  N   -0.314342
     8  N   -0.853121
     9  C   -0.045463
    10  C    0.161588
    11  C    0.236395
    12  C    0.226561
    13  C    0.037457
    14  C    0.198417
    15  C    0.013269
    16  C    0.035391
    17  C    0.076545
    18  C    0.153085
    19  C    0.288321
    20  C    0.363782
    21  C    0.296396
    22  C   -0.080397
    23  C    0.297312
    24  C    0.479766
    25  C    0.036907
    26  C   -0.202678
    27  C    0.404269
    28  C    0.662508
    29  C    0.281510
 Electronic spatial extent (au):  <R**2>=          13983.8548
 Charge=              0.0000 electrons
 Dipole moment (field-independent basis, Debye):
    X=             -4.5246    Y=              5.7996    Z=              1.1909  Tot=              7.4516
 Quadrupole moment (field-independent basis, Debye-Ang):
   XX=           -178.4589   YY=           -169.1605   ZZ=           -162.2161
   XY=              8.9191   XZ=              2.2654   YZ=              0.5218
 Traceless Quadrupole moment (field-independent basis, Debye-Ang):
   XX=             -8.5137   YY=              0.7846   ZZ=              7.7291
   XY=              8.9191   XZ=              2.2654   YZ=              0.5218
 Octapole moment (field-independent basis, Debye-Ang**2):
  XXX=              3.0730  YYY=             60.9724  ZZZ=              6.5666  XYY=            -21.3283
  XXY=            -27.4439  XXZ=            -26.0933  XZZ=             -7.1594  YZZ=              4.2931
  YYZ=             10.6955  XYZ=              7.0234
 Hexadecapole moment (field-independent basis, Debye-Ang**3):
 XXXX=         -14150.0084 YYYY=          -3054.1943 ZZZZ=           -809.1877 XXXY=           -343.3789
 XXXZ=             75.6762 YYYX=            102.4219 YYYZ=             25.5071 ZZZX=            -21.5638
 ZZZY=             29.8332 XXYY=          -2908.2729 XXZZ=          -2406.6706 YYZZ=           -637.0513
 XXYZ=            -37.0595 YYXZ=             27.1663 ZZXY=            -35.7223
 N-N= 2.870252963653D+03 E-N=-8.939609942213D+03  KE= 1.360984974820D+03
 PrsmSu:  requested number of processors reduced to:   9 ShMem   1 Linda.
 Calling FoFJK, ICntrl=      2127 FMM=F ISym2X=0 I1Cent= 0 IOpClX= 0 NMat=1 NMatS=1 NMatT=0.
 ***** Axes restored to original set *****
 -------------------------------------------------------------------
 Center     Atomic                   Forces (Hartrees/Bohr)
 Number     Number              X              Y              Z
 -------------------------------------------------------------------
      1        9          -0.006749411    0.002934800   -0.002444221
      2        8           0.001244098   -0.010971068    0.020099791
      3        8          -0.000919107    0.003820281    0.000265280
      4        8          -0.007732462    0.007488064   -0.000389340
      5        8           0.003675474   -0.004996523   -0.000288813
      6        7           0.008494979    0.000379262   -0.000220106
      7        7          -0.000858670   -0.011026189    0.001393875
      8        7           0.001134485    0.003887918   -0.000355407
      9        6          -0.009688766   -0.000630569   -0.008778593
     10        6           0.000933875   -0.006678733   -0.008614507
     11        6           0.002524834    0.013189546   -0.015275631
     12        6           0.004869135   -0.009276577    0.017160720
     13        6           0.008086835    0.010387905    0.001830618
     14        6          -0.007825800   -0.000757727   -0.016439130
     15        6          -0.012352464    0.004780829    0.000835620
     16        6           0.016859696   -0.008343250    0.004847772
     17        6          -0.014336793   -0.000607407    0.010304191
     18        6          -0.000031204   -0.001382330    0.014504344
     19        6           0.013506569    0.000375028    0.000025114
     20        6          -0.002344628    0.002233223   -0.001964332
     21        6           0.001236636    0.016643216    0.006625267
     22        6          -0.003382118   -0.002432534   -0.000210680
     23        6          -0.003183957    0.000611920    0.004008202
     24        6           0.010118305    0.001400341    0.002074215
     25        6           0.004955288   -0.001119214   -0.000253621
     26        6          -0.004072952   -0.007594510   -0.001315045
     27        6           0.005988231    0.000596879    0.000296192
     28        6          -0.015430624   -0.007171429   -0.001585324
     29        6          -0.006535104   -0.004376253   -0.024641857
     30        1           0.001927815    0.000926576    0.003698703
     31        1           0.000689694    0.002476598    0.001182859
     32        1          -0.001801304    0.000401642    0.003350272
     33        1           0.001425068   -0.002991474    0.002939204
     34        1          -0.001210568   -0.000704469   -0.004067015
     35        1          -0.000005718    0.003732302   -0.001703136
     36        1          -0.000147580   -0.002073902    0.000468903
     37        1          -0.000502552   -0.001862991   -0.001741735
     38        1           0.001358564    0.001693101    0.004799870
     39        1           0.001861134   -0.001774460   -0.001268783
     40        1           0.002994268   -0.001443211    0.000276582
     41        1          -0.002702244    0.001869155   -0.002185525
     42        1          -0.003090798   -0.001063035   -0.001905651
     43        1          -0.001358741    0.003364349    0.001062715
     44        1           0.002735251    0.002150357   -0.000435131
     45        1           0.000734386   -0.001961619   -0.003151788
     46        1          -0.002079622    0.000576176   -0.002816450
     47        1           0.001712899    0.002342625   -0.001537578
     48        1          -0.002197118    0.005354418    0.000074357
     49        1          -0.001814405   -0.005858126   -0.001537969
     50        1          -0.003370286   -0.000711833    0.000690630
     51        1           0.002941516   -0.002567454    0.000884420
     52        1           0.001232852    0.002649886    0.000122273
     53        1           0.012483106    0.004110491    0.001305381
 -------------------------------------------------------------------
 Cartesian Forces:  Max     0.024641857 RMS     0.006127231

 GradGradGradGradGradGradGradGradGradGradGradGradGradGradGradGradGradGrad
 Berny optimization.
 FormGI is forming the generalized inverse of G from B-inverse, IUseBI=4.
 GSVD:  received Info=                   1 from GESDD.
 Internal  Forces:  Max     0.024109438 RMS     0.003313577
 Search for a local minimum.
 Step number   1 out of a maximum of  318
 All quantities printed in internal units (Hartrees-Bohrs-Radians)
 Mixed Optimization -- RFO/linear search
 Second derivative matrix not updated -- first step.
 ITU=  0
     Eigenvalues ---    0.00565   0.00621   0.00655   0.00914   0.00973
     Eigenvalues ---    0.01004   0.01061   0.01109   0.01164   0.01297
     Eigenvalues ---    0.01446   0.01489   0.01532   0.01594   0.01633
     Eigenvalues ---    0.01765   0.01803   0.01835   0.01837   0.01863
     Eigenvalues ---    0.01898   0.01929   0.02028   0.02170   0.02186
     Eigenvalues ---    0.02212   0.02256   0.02328   0.02356   0.02413
     Eigenvalues ---    0.02579   0.02648   0.03032   0.03093   0.03110
     Eigenvalues ---    0.03640   0.03730   0.03988   0.04306   0.04485
     Eigenvalues ---    0.04542   0.04767   0.04965   0.04986   0.05348
     Eigenvalues ---    0.05466   0.05733   0.05968   0.06104   0.06451
     Eigenvalues ---    0.06744   0.07638   0.07915   0.08223   0.08247
     Eigenvalues ---    0.08312   0.08829   0.08968   0.09794   0.10008
     Eigenvalues ---    0.10042   0.10393   0.10550   0.10553   0.11129
     Eigenvalues ---    0.12122   0.12280   0.14329   0.15983   0.15998
     Eigenvalues ---    0.16000   0.16000   0.16000   0.16000   0.16000
     Eigenvalues ---    0.16218   0.17108   0.17310   0.19510   0.21225
     Eigenvalues ---    0.23355   0.23565   0.24858   0.24922   0.24945
     Eigenvalues ---    0.24968   0.24983   0.24984   0.24986   0.24996
     Eigenvalues ---    0.24997   0.24998   0.24998   0.25000   0.25000
     Eigenvalues ---    0.25000   0.25000   0.26585   0.26805   0.28086
     Eigenvalues ---    0.28341   0.28474   0.28734   0.29052   0.32111
     Eigenvalues ---    0.32224   0.32637   0.32778   0.32963   0.33390
     Eigenvalues ---    0.33393   0.33411   0.33504   0.33569   0.33590
     Eigenvalues ---    0.33594   0.33625   0.33709   0.33808   0.33823
     Eigenvalues ---    0.33925   0.34131   0.34784   0.34838   0.34924
     Eigenvalues ---    0.34928   0.34931   0.34960   0.34998   0.35144
     Eigenvalues ---    0.35149   0.35241   0.36268   0.36315   0.37118
     Eigenvalues ---    0.38961   0.39603   0.40150   0.42068   0.42491
     Eigenvalues ---    0.43127   0.43129   0.44816   0.47463   0.48732
     Eigenvalues ---    0.48755   0.49982   0.50369   0.50691   0.52360
     Eigenvalues ---    0.53483   0.85055   0.88709
 RFO step:  Lambda=-1.30479093D-02 EMin= 5.65066808D-03
 Linear search not attempted -- first point.
 Iteration  1 RMS(Cart)=  0.11592432 RMS(Int)=  0.00357081
 Iteration  2 RMS(Cart)=  0.00819285 RMS(Int)=  0.00012405
 Iteration  3 RMS(Cart)=  0.00003108 RMS(Int)=  0.00012349
 Iteration  4 RMS(Cart)=  0.00000000 RMS(Int)=  0.00012349
 Variable       Old X    -DE/DX   Delta X   Delta X   Delta X     New X
                                 (Linear)    (Quad)   (Total)
    R1        2.59174   0.00668   0.00000   0.01285   0.01285   2.60460
    R2        2.61167   0.01683   0.00000   0.03363   0.03363   2.64530
    R3        2.72096   0.02411   0.00000   0.05894   0.05894   2.77990
    R4        2.35299   0.00351   0.00000   0.00406   0.00406   2.35705
    R5        2.56505   0.01257   0.00000   0.02293   0.02293   2.58799
    R6        1.86194   0.01193   0.00000   0.02308   0.02308   1.88503
    R7        2.33534   0.00618   0.00000   0.00686   0.00686   2.34220
    R8        2.77922   0.00829   0.00000   0.02388   0.02391   2.80314
    R9        2.76887   0.00777   0.00000   0.02201   0.02202   2.79089
   R10        2.62516  -0.00423   0.00000  -0.00868  -0.00868   2.61647
   R11        2.75175   0.00862   0.00000   0.02267   0.02269   2.77444
   R12        2.76767   0.00944   0.00000   0.02617   0.02617   2.79383
   R13        1.94211  -0.00300   0.00000  -0.00675  -0.00675   1.93536
   R14        2.75669   0.00638   0.00000   0.01660   0.01660   2.77329
   R15        2.67476  -0.00012   0.00000   0.00009   0.00008   2.67484
   R16        2.56310   0.00402   0.00000   0.00755   0.00755   2.57065
   R17        2.91420   0.00835   0.00000   0.02842   0.02837   2.94256
   R18        2.89120   0.00676   0.00000   0.02036   0.02040   2.91161
   R19        2.90074   0.00414   0.00000   0.01233   0.01234   2.91308
   R20        2.08176  -0.00412   0.00000  -0.01183  -0.01183   2.06992
   R21        2.92163   0.00748   0.00000   0.02395   0.02395   2.94557
   R22        2.08367  -0.00250   0.00000  -0.00720  -0.00720   2.07647
   R23        2.09442  -0.00349   0.00000  -0.01025  -0.01025   2.08417
   R24        2.07457  -0.00285   0.00000  -0.00808  -0.00808   2.06649
   R25        2.09116  -0.00400   0.00000  -0.01168  -0.01168   2.07949
   R26        2.07823  -0.00333   0.00000  -0.00950  -0.00950   2.06873
   R27        2.88692   0.00730   0.00000   0.02324   0.02322   2.91015
   R28        2.07968  -0.00195   0.00000  -0.00557  -0.00557   2.07411
   R29        2.08372  -0.00191   0.00000  -0.00550  -0.00550   2.07822
   R30        2.84269   0.00847   0.00000   0.02607   0.02608   2.86877
   R31        2.82909   0.00604   0.00000   0.01721   0.01720   2.84628
   R32        2.05798  -0.00525   0.00000  -0.01450  -0.01450   2.04348
   R33        2.88214   0.00599   0.00000   0.01875   0.01874   2.90088
   R34        2.08063  -0.00259   0.00000  -0.00743  -0.00743   2.07320
   R35        2.08020  -0.00228   0.00000  -0.00653  -0.00653   2.07367
   R36        2.84839   0.00828   0.00000   0.02512   0.02513   2.87352
   R37        2.05679  -0.00373   0.00000  -0.01028  -0.01028   2.04651
   R38        2.05786  -0.00373   0.00000  -0.01028  -0.01028   2.04758
   R39        2.05441  -0.00338   0.00000  -0.00927  -0.00927   2.04514
   R40        2.05792  -0.00376   0.00000  -0.01038  -0.01038   2.04754
   R41        2.10435  -0.00329   0.00000  -0.00982  -0.00982   2.09454
   R42        2.08028  -0.00300   0.00000  -0.00860  -0.00860   2.07168
   R43        2.68361  -0.00608   0.00000  -0.01408  -0.01406   2.66954
   R44        2.67045  -0.00538   0.00000  -0.01220  -0.01212   2.65833
   R45        2.68283  -0.00505   0.00000  -0.01153  -0.01157   2.67126
   R46        2.67337  -0.00277   0.00000  -0.00598  -0.00607   2.66730
   R47        2.64644  -0.00283   0.00000  -0.00585  -0.00587   2.64057
   R48        2.81760  -0.00128   0.00000  -0.00409  -0.00410   2.81350
   R49        2.58697  -0.00128   0.00000  -0.00243  -0.00238   2.58459
   R50        2.59622  -0.00639   0.00000  -0.01242  -0.01240   2.58382
   R51        2.05740  -0.00545   0.00000  -0.01504  -0.01504   2.04236
   R52        2.06027  -0.00627   0.00000  -0.01738  -0.01738   2.04289
   R53        2.75325  -0.00216   0.00000  -0.00598  -0.00597   2.74728
   R54        2.79239  -0.00709   0.00000  -0.01961  -0.01961   2.77278
   R55        2.08336  -0.00309   0.00000  -0.00889  -0.00889   2.07447
   R56        2.07630  -0.00400   0.00000  -0.01138  -0.01138   2.06492
   R57        2.07110  -0.00291   0.00000  -0.00821  -0.00821   2.06290
    A1        1.99947   0.00323   0.00000   0.01227   0.01227   2.01174
    A2        1.82459   0.01056   0.00000   0.06102   0.06102   1.88561
    A3        1.95695   0.00331   0.00000   0.01660   0.01647   1.97342
    A4        2.17364  -0.00409   0.00000  -0.01819  -0.01845   2.15520
    A5        2.15166   0.00074   0.00000   0.00000  -0.00028   2.15138
    A6        2.03404  -0.00197   0.00000  -0.00806  -0.00806   2.02597
    A7        1.93928   0.00167   0.00000   0.01390   0.01390   1.95317
    A8        1.95181   0.00044   0.00000   0.00561   0.00559   1.95741
    A9        2.15199  -0.00411   0.00000  -0.01644  -0.01641   2.13557
   A10        2.05052   0.00598   0.00000   0.02194   0.02195   2.07247
   A11        2.08012  -0.00187   0.00000  -0.00572  -0.00577   2.07434
   A12        1.79416   0.00133   0.00000   0.00287   0.00276   1.79692
   A13        1.94923  -0.00041   0.00000  -0.00597  -0.00606   1.94317
   A14        1.91015  -0.00001   0.00000   0.00801   0.00802   1.91816
   A15        1.95688  -0.00186   0.00000  -0.01690  -0.01687   1.94001
   A16        1.93668   0.00009   0.00000   0.00759   0.00752   1.94420
   A17        1.91396   0.00087   0.00000   0.00472   0.00477   1.91873
   A18        1.96630   0.00077   0.00000  -0.00145  -0.00153   1.96476
   A19        2.06197  -0.00225   0.00000  -0.01572  -0.01579   2.04618
   A20        1.86434   0.00066   0.00000   0.01305   0.01309   1.87742
   A21        1.80728   0.00045   0.00000  -0.00401  -0.00415   1.80313
   A22        1.88083  -0.00108   0.00000  -0.00295  -0.00296   1.87787
   A23        1.87519   0.00150   0.00000   0.01190   0.01201   1.88721
   A24        1.82030  -0.00305   0.00000  -0.01765  -0.01762   1.80268
   A25        1.92819   0.00182   0.00000   0.01814   0.01813   1.94632
   A26        1.95295  -0.00102   0.00000  -0.02485  -0.02493   1.92802
   A27        1.93721   0.00023   0.00000   0.00288   0.00291   1.94012
   A28        1.95290   0.00143   0.00000   0.00467   0.00415   1.95706
   A29        1.87339   0.00058   0.00000   0.01624   0.01632   1.88972
   A30        1.80905  -0.00255   0.00000  -0.01395  -0.01390   1.79515
   A31        1.93308   0.00117   0.00000   0.00789   0.00778   1.94086
   A32        1.95768  -0.00051   0.00000  -0.01382  -0.01375   1.94393
   A33        1.94069  -0.00058   0.00000  -0.00755  -0.00756   1.93313
   A34        1.94898   0.00199   0.00000   0.01382   0.01368   1.96266
   A35        1.87544   0.00043   0.00000   0.01264   0.01266   1.88811
   A36        1.95580   0.00029   0.00000  -0.00758  -0.00763   1.94817
   A37        1.90784  -0.00053   0.00000  -0.00314  -0.00317   1.90466
   A38        1.90672  -0.00065   0.00000  -0.00514  -0.00510   1.90162
   A39        1.93351  -0.00007   0.00000  -0.00257  -0.00261   1.93091
   A40        1.90244   0.00036   0.00000   0.00986   0.00984   1.91228
   A41        1.85463   0.00061   0.00000   0.00947   0.00945   1.86407
   A42        2.09301  -0.00105   0.00000  -0.00564  -0.00564   2.08737
   A43        2.09125  -0.00056   0.00000  -0.00256  -0.00256   2.08868
   A44        1.98250   0.00066   0.00000   0.00404   0.00402   1.98652
   A45        2.03225   0.00052   0.00000   0.00673   0.00674   2.03899
   A46        2.03963  -0.00024   0.00000  -0.00591  -0.00591   2.03372
   A47        1.91909   0.00100   0.00000   0.00209   0.00202   1.92111
   A48        1.92612  -0.00056   0.00000  -0.00280  -0.00277   1.92335
   A49        1.92571  -0.00036   0.00000  -0.00353  -0.00353   1.92219
   A50        1.91642  -0.00081   0.00000  -0.00372  -0.00371   1.91271
   A51        1.90582  -0.00044   0.00000  -0.00629  -0.00627   1.89954
   A52        1.87002   0.00115   0.00000   0.01440   0.01440   1.88442
   A53        2.08256   0.00040   0.00000   0.00061   0.00059   2.08315
   A54        2.04081  -0.00037   0.00000  -0.00240  -0.00241   2.03840
   A55        2.04348   0.00011   0.00000  -0.00176  -0.00176   2.04172
   A56        2.08238  -0.00015   0.00000  -0.00164  -0.00165   2.08073
   A57        1.99164   0.00035   0.00000   0.00440   0.00441   1.99605
   A58        2.05547  -0.00074   0.00000  -0.00575  -0.00575   2.04972
   A59        2.03509  -0.00005   0.00000  -0.00105  -0.00105   2.03404
   A60        2.10054   0.00008   0.00000  -0.00069  -0.00070   2.09984
   A61        2.03442  -0.00062   0.00000  -0.00074  -0.00073   2.03369
   A62        2.00185   0.00061   0.00000   0.00412   0.00411   2.00596
   A63        1.91160  -0.00038   0.00000  -0.00411  -0.00412   1.90748
   A64        1.98315   0.00075   0.00000   0.00667   0.00664   1.98979
   A65        1.87390   0.00070   0.00000   0.00678   0.00674   1.88064
   A66        1.89620  -0.00067   0.00000  -0.00521  -0.00520   1.89100
   A67        1.93330  -0.00086   0.00000  -0.00995  -0.00994   1.92336
   A68        1.86549   0.00045   0.00000   0.00570   0.00563   1.87112
   A69        2.12012   0.00037   0.00000   0.00169   0.00162   2.12174
   A70        2.13535  -0.00839   0.00000  -0.03161  -0.03168   2.10367
   A71        2.02762   0.00802   0.00000   0.02989   0.03002   2.05765
   A72        2.15271  -0.00065   0.00000  -0.00295  -0.00289   2.14982
   A73        2.05272   0.00164   0.00000   0.00725   0.00721   2.05993
   A74        2.07719  -0.00098   0.00000  -0.00377  -0.00392   2.07327
   A75        2.06632   0.00334   0.00000   0.01286   0.01287   2.07919
   A76        2.09677  -0.00033   0.00000  -0.00107  -0.00105   2.09572
   A77        2.12007  -0.00301   0.00000  -0.01184  -0.01188   2.10819
   A78        2.08590   0.00188   0.00000   0.00795   0.00790   2.09380
   A79        2.15848   0.00047   0.00000   0.00129   0.00127   2.15974
   A80        2.03866  -0.00235   0.00000  -0.00924  -0.00917   2.02949
   A81        2.06167  -0.00104   0.00000  -0.00321  -0.00385   2.05782
   A82        2.06926   0.00760   0.00000   0.02973   0.02906   2.09832
   A83        2.15146  -0.00647   0.00000  -0.02420  -0.02460   2.12687
   A84        2.20500  -0.00282   0.00000  -0.01122  -0.01126   2.19374
   A85        2.01913   0.00342   0.00000   0.01730   0.01728   2.03640
   A86        2.05892  -0.00059   0.00000  -0.00585  -0.00587   2.05304
   A87        2.09921   0.00060   0.00000   0.00311   0.00318   2.10239
   A88        2.05774  -0.00030   0.00000  -0.00140  -0.00143   2.05632
   A89        2.12527  -0.00030   0.00000  -0.00139  -0.00145   2.12382
   A90        2.08354   0.00559   0.00000   0.02090   0.02091   2.10444
   A91        1.98450   0.00191   0.00000   0.00747   0.00747   1.99197
   A92        2.21500  -0.00751   0.00000  -0.02835  -0.02835   2.18665
   A93        2.10561  -0.00061   0.00000  -0.00183  -0.00183   2.10378
   A94        2.19376   0.00362   0.00000   0.01421   0.01421   2.20798
   A95        1.98376  -0.00301   0.00000  -0.01234  -0.01236   1.97140
   A96        2.11500   0.00347   0.00000   0.01320   0.01319   2.12819
   A97        2.01132  -0.00669   0.00000  -0.02542  -0.02543   1.98589
   A98        2.15686   0.00322   0.00000   0.01223   0.01222   2.16909
   A99        1.92639   0.00264   0.00000   0.01592   0.01591   1.94230
   A100       1.94583  -0.00010   0.00000  -0.00056  -0.00057   1.94526
   A101       1.85413  -0.00074   0.00000  -0.00493  -0.00494   1.84919
   A102       1.90792  -0.00088   0.00000  -0.00388  -0.00390   1.90402
   A103       1.91561  -0.00081   0.00000  -0.00471  -0.00471   1.91090
   A104       1.91333  -0.00013   0.00000  -0.00200  -0.00201   1.91132
    D1        1.20514   0.00086   0.00000   0.02757   0.02765   1.23279
    D2       -1.94400   0.00072   0.00000   0.02126   0.02118  -1.92281
    D3        1.13639  -0.00003   0.00000  -0.00778  -0.00776   1.12863
    D4       -0.98760  -0.00068   0.00000  -0.01349  -0.01350  -1.00110
    D5       -3.07115  -0.00001   0.00000  -0.00773  -0.00774  -3.07889
    D6       -0.00791  -0.00005   0.00000  -0.00211  -0.00211  -0.01002
    D7        3.13265   0.00013   0.00000   0.00437   0.00437   3.13702
    D8        0.23264   0.00023   0.00000   0.00515   0.00504   0.23768
    D9       -1.85003   0.00079   0.00000   0.00273   0.00277  -1.84726
   D10        2.34692  -0.00050   0.00000  -0.01367  -0.01334   2.33358
   D11       -2.86374   0.00109   0.00000   0.04344   0.04323  -2.82051
   D12        1.33678   0.00166   0.00000   0.04102   0.04096   1.37774
   D13       -0.74946   0.00037   0.00000   0.02463   0.02485  -0.72461
   D14        0.17304  -0.00015   0.00000   0.00674   0.00686   0.17990
   D15       -1.90974   0.00141   0.00000   0.01971   0.01989  -1.88984
   D16        2.27813   0.00040   0.00000   0.00748   0.00775   2.28589
   D17       -3.01311  -0.00115   0.00000  -0.03155  -0.03178  -3.04489
   D18        1.18730   0.00041   0.00000  -0.01858  -0.01875   1.16855
   D19       -0.90801  -0.00060   0.00000  -0.03081  -0.03089  -0.93890
   D20       -2.28860  -0.00366   0.00000  -0.12531  -0.12517  -2.41377
   D21        0.86790  -0.00372   0.00000  -0.12270  -0.12242   0.74548
   D22        0.90310  -0.00275   0.00000  -0.08321  -0.08348   0.81961
   D23       -2.22358  -0.00280   0.00000  -0.08060  -0.08073  -2.30432
   D24       -0.88477  -0.00032   0.00000  -0.01257  -0.01257  -0.89734
   D25        1.22266  -0.00084   0.00000  -0.03204  -0.03202   1.19063
   D26       -2.94666   0.00015   0.00000  -0.01642  -0.01643  -2.96308
   D27        3.13514  -0.00078   0.00000  -0.02676  -0.02678   3.10837
   D28       -1.04061  -0.00130   0.00000  -0.04623  -0.04623  -1.08684
   D29        1.07326  -0.00031   0.00000  -0.03062  -0.03063   1.04263
   D30        0.99010  -0.00038   0.00000   0.00327   0.00327   0.99337
   D31       -1.13384   0.00025   0.00000   0.00843   0.00846  -1.12538
   D32        3.09043  -0.00121   0.00000  -0.00703  -0.00706   3.08337
   D33       -3.03580   0.00065   0.00000   0.02145   0.02145  -3.01435
   D34        1.12345   0.00128   0.00000   0.02661   0.02664   1.15009
   D35       -0.93547  -0.00018   0.00000   0.01115   0.01112  -0.92435
   D36       -2.50915   0.00119   0.00000   0.04710   0.04711  -2.46204
   D37       -1.27382   0.00103   0.00000   0.04543   0.04544  -1.22838
   D38        1.25589   0.00075   0.00000   0.03640   0.03640   1.29229
   D39        0.59609   0.00096   0.00000   0.04004   0.04004   0.63613
   D40        1.83142   0.00080   0.00000   0.03838   0.03837   1.86979
   D41       -1.92205   0.00052   0.00000   0.02934   0.02932  -1.89273
   D42       -0.14994   0.00028   0.00000   0.00801   0.00810  -0.14184
   D43        3.02822  -0.00020   0.00000  -0.00896  -0.00876   3.01945
   D44        3.02859   0.00036   0.00000   0.01464   0.01463   3.04322
   D45       -0.07644  -0.00012   0.00000  -0.00233  -0.00223  -0.07867
   D46       -3.03932  -0.00025   0.00000  -0.00770  -0.00759  -3.04691
   D47        0.08341   0.00022   0.00000   0.00679   0.00695   0.09035
   D48        0.06748  -0.00052   0.00000  -0.01472  -0.01467   0.05280
   D49       -3.09298  -0.00006   0.00000  -0.00023  -0.00013  -3.09312
   D50        2.89256  -0.00050   0.00000   0.00103   0.00106   2.89362
   D51        0.64488   0.00151   0.00000   0.02471   0.02479   0.66967
   D52       -1.33846   0.00006   0.00000   0.01433   0.01437  -1.32409
   D53        0.79136   0.00112   0.00000   0.02232   0.02233   0.81370
   D54       -1.45631   0.00313   0.00000   0.04599   0.04607  -1.41025
   D55        2.84353   0.00168   0.00000   0.03562   0.03564   2.87917
   D56       -1.33137   0.00029   0.00000   0.01481   0.01484  -1.31654
   D57        2.70414   0.00231   0.00000   0.03849   0.03857   2.74270
   D58        0.72080   0.00085   0.00000   0.02812   0.02814   0.74894
   D59       -0.53837  -0.00023   0.00000  -0.01485  -0.01477  -0.55314
   D60        1.53818   0.00027   0.00000  -0.00216  -0.00212   1.53606
   D61       -2.65268   0.00213   0.00000   0.02359   0.02364  -2.62904
   D62        1.55755  -0.00084   0.00000  -0.02864  -0.02858   1.52897
   D63       -2.64909  -0.00035   0.00000  -0.01595  -0.01592  -2.66501
   D64       -0.55677   0.00152   0.00000   0.00981   0.00984  -0.54693
   D65       -2.57883  -0.00098   0.00000  -0.02912  -0.02909  -2.60791
   D66       -0.50228  -0.00048   0.00000  -0.01643  -0.01643  -0.51871
   D67        1.59005   0.00138   0.00000   0.00932   0.00933   1.59937
   D68       -0.86470   0.00001   0.00000  -0.01811  -0.01806  -0.88276
   D69       -3.01506   0.00029   0.00000  -0.00741  -0.00737  -3.02243
   D70        1.24547   0.00022   0.00000  -0.01412  -0.01407   1.23140
   D71       -2.86777  -0.00022   0.00000  -0.00736  -0.00739  -2.87517
   D72        1.26505   0.00005   0.00000   0.00335   0.00330   1.26835
   D73       -0.75760  -0.00002   0.00000  -0.00336  -0.00340  -0.76101
   D74        1.25583   0.00033   0.00000  -0.00871  -0.00869   1.24714
   D75       -0.89453   0.00060   0.00000   0.00200   0.00200  -0.89253
   D76       -2.91719   0.00053   0.00000  -0.00471  -0.00469  -2.92188
   D77       -2.69230   0.00026   0.00000   0.00130   0.00123  -2.69107
   D78       -0.61475  -0.00011   0.00000  -0.00117  -0.00118  -0.61593
   D79        1.47991   0.00139   0.00000   0.01912   0.01911   1.49902
   D80       -0.50481   0.00013   0.00000  -0.01453  -0.01450  -0.51931
   D81        1.57274  -0.00025   0.00000  -0.01700  -0.01691   1.55583
   D82       -2.61578   0.00125   0.00000   0.00329   0.00338  -2.61240
   D83        1.48260  -0.00028   0.00000  -0.01486  -0.01488   1.46772
   D84       -2.72304  -0.00066   0.00000  -0.01733  -0.01729  -2.74033
   D85       -0.62838   0.00084   0.00000   0.00296   0.00300  -0.62538
   D86        0.97976   0.00072   0.00000   0.01527   0.01526   0.99502
   D87        3.09643   0.00000   0.00000   0.01016   0.01015   3.10658
   D88       -1.12344   0.00085   0.00000   0.02401   0.02400  -1.09944
   D89        3.11557   0.00018   0.00000   0.00402   0.00402   3.11960
   D90       -1.05094  -0.00054   0.00000  -0.00108  -0.00109  -1.05203
   D91        1.01237   0.00031   0.00000   0.01276   0.01276   1.02514
   D92       -1.13288   0.00110   0.00000   0.01992   0.01995  -1.11293
   D93        0.98379   0.00038   0.00000   0.01482   0.01484   0.99863
   D94        3.04711   0.00123   0.00000   0.02866   0.02869   3.07579
   D95        0.05898   0.00034   0.00000   0.00352   0.00351   0.06250
   D96       -2.45744  -0.00042   0.00000  -0.00232  -0.00231  -2.45975
   D97        2.56012   0.00081   0.00000   0.01344   0.01344   2.57356
   D98        0.04370   0.00006   0.00000   0.00760   0.00761   0.05131
   D99        2.43619   0.00031   0.00000   0.00307   0.00309   2.43928
   D100      -0.04841   0.00036   0.00000   0.00557   0.00558  -0.04284
   D101      -0.07424   0.00029   0.00000   0.00901   0.00900  -0.06524
   D102      -2.55885   0.00034   0.00000   0.01151   0.01148  -2.54736
   D103      -1.00570  -0.00041   0.00000  -0.00764  -0.00762  -1.01332
   D104       1.16969  -0.00017   0.00000  -0.00548  -0.00548   1.16421
   D105      -3.06942  -0.00052   0.00000  -0.00739  -0.00738  -3.07680
   D106      -3.12817   0.00017   0.00000  -0.00309  -0.00307  -3.13125
   D107      -0.95278   0.00041   0.00000  -0.00094  -0.00094  -0.95372
   D108       1.09129   0.00006   0.00000  -0.00284  -0.00284   1.08845
   D109       1.10947  -0.00050   0.00000  -0.01468  -0.01467   1.09480
   D110      -2.99832  -0.00026   0.00000  -0.01253  -0.01253  -3.01086
   D111      -0.95425  -0.00061   0.00000  -0.01443  -0.01443  -0.96869
   D112      -2.50694  -0.00059   0.00000  -0.00555  -0.00554  -2.51248
   D113       0.05038  -0.00026   0.00000   0.00064   0.00066   0.05104
   D114       0.01367   0.00006   0.00000  -0.00233  -0.00234   0.01132
   D115       2.57098   0.00038   0.00000   0.00386   0.00386   2.57484
   D116       0.10728  -0.00076   0.00000  -0.02712  -0.02710   0.08018
   D117      -3.02666  -0.00063   0.00000  -0.02077  -0.02063  -3.04730
   D118      -3.04835  -0.00084   0.00000  -0.03007  -0.03028  -3.07863
   D119       0.10089  -0.00071   0.00000  -0.02372  -0.02381   0.07708
   D120      -0.00695  -0.00127   0.00000  -0.03429  -0.03377  -0.04072
   D121       3.09116   0.00109   0.00000   0.02999   0.02978   3.12094
[...]
 ! D136  D(20,22,27,3)        -179.8487         -DE/DX =    0.0                 !
 ! D137  D(20,22,27,26)          0.6943         -DE/DX =    0.0                 !
 ! D138  D(25,22,27,3)           1.2094         -DE/DX =    0.0                 !
 ! D139  D(25,22,27,26)       -178.2476         -DE/DX =    0.0                 !
 ! D140  D(1,23,25,22)         175.2515         -DE/DX =    0.0                 !
 ! D141  D(1,23,25,49)          -2.3898         -DE/DX =    0.0                 !
 ! D142  D(19,23,25,22)         -4.1244         -DE/DX =    0.0                 !
 ! D143  D(19,23,25,49)        178.2343         -DE/DX =    0.0                 !
 ! D144  D(8,24,26,27)           1.5861         -DE/DX =    0.0                 !
 ! D145  D(8,24,26,28)        -179.7009         -DE/DX =    0.0                 !
 ! D146  D(48,24,26,27)       -177.688          -DE/DX =    0.0                 !
 ! D147  D(48,24,26,28)          1.025          -DE/DX =    0.0                 !
 ! D148  D(24,26,27,3)         177.0322         -DE/DX =    0.0                 !
 ! D149  D(24,26,27,22)         -3.5533         -DE/DX =    0.0                 !
 ! D150  D(28,26,27,3)          -1.5235         -DE/DX =    0.0                 !
 ! D151  D(28,26,27,22)        177.8911         -DE/DX =    0.0                 !
 ! D152  D(24,26,28,4)        -179.9042         -DE/DX =    0.0                 !
 ! D153  D(24,26,28,5)           0.0876         -DE/DX =    0.0                 !
 ! D154  D(27,26,28,4)          -1.2652         -DE/DX =    0.0                 !
 ! D155  D(27,26,28,5)         178.7266         -DE/DX =    0.0                 !
 --------------------------------------------------------------------------------
 GradGradGradGradGradGradGradGradGradGradGradGradGradGradGradGradGradGrad

 Stoichiometry    C21H24FN3O4
 Framework group  C1[X(C21H24FN3O4)]
 Deg. of freedom   153
 Full point group                 C1      NOp   1
 Largest Abelian subgroup         C1      NOp   1
 Largest concise Abelian subgroup C1      NOp   1
                         Standard orientation:                         
 ---------------------------------------------------------------------
 Center     Atomic      Atomic             Coordinates (Angstroms)
 Number     Number       Type             X           Y           Z
 ---------------------------------------------------------------------
      1          9           0       -1.614661   -2.666155    0.358569
      2          8           0       -0.249427    1.930805    0.862408
      3          8           0        3.288438   -2.874240   -0.252293
      4          8           0        5.898457   -2.105811   -0.399136
      5          8           0        6.362527    0.127763   -0.347586
      6          7           0       -2.273635    0.042072    0.870375
      7          7           0       -5.361237    1.133950   -0.872193
      8          7           0        2.432759    1.170111    0.092861
      9          6           0       -4.558681   -0.624569    0.727498
     10          6           0       -4.453250    0.852285    0.248148
     11          6           0       -3.294251   -0.776178    1.595162
     12          6           0       -2.923503    1.053788   -0.011811
     13          6           0       -4.532295   -1.616204   -0.458875
     14          6           0        2.190694    2.614745   -0.009240
     15          6           0       -5.531736   -1.208593   -1.561707
     16          6           0        2.944908    3.393941   -1.081156
     17          6           0        1.446267    3.139284   -1.212018
     18          6           0       -5.236605    0.225549   -2.033543
     19          6           0       -0.968052   -0.368901    0.619868
     20          6           0        1.387860    0.229893    0.242728
     21          6           0        0.061170    0.592358    0.563920
     22          6           0        1.700594   -1.136935    0.093190
     23          6           0       -0.612293   -1.713348    0.384239
     24          6           0        3.707433    0.720023   -0.059159
     25          6           0        0.684481   -2.093306    0.170168
     26          6           0        4.082804   -0.591134   -0.151918
     27          6           0        3.083835   -1.651099   -0.125245
     28          6           0        5.530557   -0.787668   -0.304714
     29          6           0       -0.536165    2.148497    2.306775
     30          1           0       -5.475530   -0.759924    1.308974
     31          1           0       -4.748692    1.499404    1.082921
     32          1           0       -3.459151   -0.360802    2.598939
     33          1           0       -2.967805   -1.809598    1.678149
     34          1           0       -2.682125    0.841801   -1.060120
     35          1           0       -2.589006    2.066642    0.222887
     36          1           0       -4.769890   -2.620369   -0.085883
     37          1           0       -3.515182   -1.664039   -0.863393
     38          1           0        2.013917    3.106569    0.936591
     39          1           0       -5.465789   -1.901926   -2.408352
     40          1           0       -6.552903   -1.233561   -1.164400
     41          1           0       -5.356948    2.121715   -1.137849
     42          1           0        3.595201    2.845846   -1.751222
     43          1           0        3.284440    4.387585   -0.815964
     44          1           0        0.750653    3.949658   -1.039716
     45          1           0        1.137634    2.407529   -1.947974
     46          1           0       -4.238860    0.243644   -2.510107
     47          1           0       -5.972054    0.538348   -2.782356
     48          1           0        4.481527    1.473326   -0.121869
     49          1           0        0.958646   -3.128454    0.017517
     50          1           0        0.330999    1.870860    2.915149
     51          1           0       -1.409360    1.566110    2.605522
     52          1           0       -0.736032    3.216994    2.397205
     53          1           0        6.890456   -2.127590   -0.500073
 ---------------------------------------------------------------------
 Rotational constants (GHZ):      0.3299655      0.0922378      0.0797506

 **********************************************************************

            Population analysis using the SCF density.

 **********************************************************************

 Orbital symmetries:
       Occupied  (A) (A) (A) (A) (A) (A) (A) (A) (A) (A) (A) (A)
                 (A) (A) (A) (A) (A) (A) (A) (A) (A) (A) (A) (A)
                 (A) (A) (A) (A) (A) (A) (A) (A) (A) (A) (A) (A)
                 (A) (A) (A) (A) (A) (A) (A) (A) (A) (A) (A) (A)
                 (A) (A) (A) (A) (A) (A) (A) (A) (A) (A) (A) (A)
                 (A) (A) (A) (A) (A) (A) (A) (A) (A) (A) (A) (A)
                 (A) (A) (A) (A) (A) (A) (A) (A) (A) (A) (A) (A)
                 (A) (A) (A) (A) (A) (A) (A) (A) (A) (A) (A) (A)
                 (A) (A) (A) (A) (A) (A) (A) (A) (A) (A)
       Virtual   (A) (A) (A) (A) (A) (A) (A) (A) (A) (A) (A) (A)
                 (A) (A) (A) (A) (A) (A) (A) (A) (A) (A) (A) (A)
                 (A) (A) (A) (A) (A) (A) (A) (A) (A) (A) (A) (A)
                 (A) (A) (A) (A) (A) (A) (A) (A) (A) (A) (A) (A)
                 (A) (A) (A) (A) (A) (A) (A) (A) (A) (A) (A) (A)
                 (A) (A) (A) (A) (A) (A) (A) (A) (A) (A) (A) (A)
                 (A) (A) (A) (A) (A) (A) (A) (A) (A) (A) (A) (A)
                 (A) (A) (A) (A) (A) (A) (A) (A) (A) (A) (A) (A)
                 (A) (A) (A) (A) (A) (A) (A) (A) (A) (A) (A) (A)
                 (A) (A) (A) (A) (A) (A) (A) (A) (A) (A) (A) (A)
                 (A) (A) (A) (A) (A) (A) (A) (A) (A) (A) (A) (A)
                 (A) (A) (A) (A) (A) (A) (A) (A) (A) (A) (A) (A)
                 (A) (A) (A) (A) (A) (A) (A) (A) (A) (A) (A) (A)
                 (A) (A) (A) (A) (A) (A) (A) (A) (A) (A) (A) (A)
                 (A) (A) (A) (A) (A) (A) (A) (A) (A) (A) (A) (A)
                 (A) (A) (A) (A) (A) (A) (A) (A) (A) (A) (A) (A)
                 (A) (A) (A) (A) (A) (A) (A) (A) (A) (A) (A)
 The electronic state is 1-A.
 Alpha  occ. eigenvalues --  -24.57943 -19.07417 -19.06452 -19.01117 -18.99479
 Alpha  occ. eigenvalues --  -14.33883 -14.27237 -14.23547 -10.24732 -10.21487
 Alpha  occ. eigenvalues --  -10.19954 -10.19650 -10.19592 -10.19137 -10.18940
 Alpha  occ. eigenvalues --  -10.18666 -10.18384 -10.15910 -10.15463 -10.15115
 Alpha  occ. eigenvalues --  -10.14739 -10.14590 -10.14385 -10.14172 -10.13537
 Alpha  occ. eigenvalues --  -10.13462 -10.12933 -10.11498 -10.11432  -1.21054
 Alpha  occ. eigenvalues --   -1.08714  -1.05659  -1.01436  -1.00486  -0.99761
 Alpha  occ. eigenvalues --   -0.95271  -0.90713  -0.88615  -0.86517  -0.80917
 Alpha  occ. eigenvalues --   -0.80504  -0.78017  -0.76684  -0.74958  -0.72538
 Alpha  occ. eigenvalues --   -0.70644  -0.68572  -0.67024  -0.65267  -0.64165
 Alpha  occ. eigenvalues --   -0.62047  -0.61325  -0.61002  -0.59772  -0.59296
 Alpha  occ. eigenvalues --   -0.55700  -0.55606  -0.54435  -0.53930  -0.52284
 Alpha  occ. eigenvalues --   -0.51424  -0.50933  -0.50202  -0.49062  -0.47976
 Alpha  occ. eigenvalues --   -0.47716  -0.47187  -0.46157  -0.45697  -0.45263
 Alpha  occ. eigenvalues --   -0.45000  -0.44360  -0.44301  -0.43370  -0.42800
 Alpha  occ. eigenvalues --   -0.42415  -0.42206  -0.41818  -0.41214  -0.40617
 Alpha  occ. eigenvalues --   -0.39815  -0.39770  -0.38829  -0.38474  -0.37904
 Alpha  occ. eigenvalues --   -0.37314  -0.36925  -0.36747  -0.36075  -0.35609
 Alpha  occ. eigenvalues --   -0.35094  -0.33908  -0.32673  -0.32440  -0.31723
 Alpha  occ. eigenvalues --   -0.31528  -0.30844  -0.28804  -0.28588  -0.27349
 Alpha  occ. eigenvalues --   -0.25621  -0.25501  -0.22159  -0.21420  -0.20926
 Alpha  occ. eigenvalues --   -0.19973
 Alpha virt. eigenvalues --   -0.04064  -0.03146   0.01010   0.04220   0.07090
 Alpha virt. eigenvalues --    0.08948   0.09726   0.10138   0.10794   0.10949
 Alpha virt. eigenvalues --    0.11592   0.11849   0.12620   0.12904   0.13825
 Alpha virt. eigenvalues --    0.14585   0.15335   0.15484   0.15824   0.15991
 Alpha virt. eigenvalues --    0.16544   0.16892   0.17695   0.18059   0.18250
 Alpha virt. eigenvalues --    0.18469   0.19345   0.19500   0.19741   0.20725
 Alpha virt. eigenvalues --    0.21209   0.21659   0.21931   0.22422   0.23336
 Alpha virt. eigenvalues --    0.23396   0.23864   0.24032   0.24386   0.25897
 Alpha virt. eigenvalues --    0.26183   0.26724   0.26921   0.27546   0.28089
 Alpha virt. eigenvalues --    0.28398   0.29715   0.30075   0.30373   0.31873
 Alpha virt. eigenvalues --    0.32767   0.33065   0.34531   0.37185   0.39713
 Alpha virt. eigenvalues --    0.41552   0.42023   0.45109   0.45503   0.51077
 Alpha virt. eigenvalues --    0.55942   0.58243   0.62319   0.63566   0.63918
 Alpha virt. eigenvalues --    0.65663   0.65937   0.66161   0.67952   0.68419
 Alpha virt. eigenvalues --    0.69019   0.69444   0.69849   0.70789   0.70891
 Alpha virt. eigenvalues --    0.71318   0.71811   0.72158   0.72943   0.73675
 Alpha virt. eigenvalues --    0.73950   0.74265   0.75079   0.75400   0.75710
 Alpha virt. eigenvalues --    0.76115   0.76717   0.77255   0.78120   0.78405
 Alpha virt. eigenvalues --    0.78865   0.79224   0.79507   0.80111   0.80626
 Alpha virt. eigenvalues --    0.82499   0.83212   0.83828   0.84879   0.86218
 Alpha virt. eigenvalues --    0.86695   0.87776   0.88030   0.89386   0.90407
 Alpha virt. eigenvalues --    0.91481   0.92375   0.94300   0.94515   0.95667
 Alpha virt. eigenvalues --    0.97080   0.98824   0.99690   0.99928   1.00750
 Alpha virt. eigenvalues --    1.01631   1.02032   1.02998   1.03631   1.04596
 Alpha virt. eigenvalues --    1.04971   1.05430   1.06185   1.06286   1.07441
 Alpha virt. eigenvalues --    1.07769   1.08584   1.09832   1.09955   1.10053
 Alpha virt. eigenvalues --    1.10755   1.12022   1.13082   1.14229   1.15730
 Alpha virt. eigenvalues --    1.16355   1.18713   1.19564   1.22605   1.23272
 Alpha virt. eigenvalues --    1.23761   1.26998   1.29881   1.31359   1.33008
 Alpha virt. eigenvalues --    1.34529   1.36339   1.36715   1.38361   1.39667
 Alpha virt. eigenvalues --    1.41855   1.43888   1.45108   1.47024   1.49528
 Alpha virt. eigenvalues --    1.49946   1.50798   1.53418   1.57812   1.58466
 Alpha virt. eigenvalues --    1.59356   1.60954   1.61622   1.62707   1.64637
 Alpha virt. eigenvalues --    1.66181   1.68019   1.69688   1.71601   1.71714
 Alpha virt. eigenvalues --    1.73177   1.75207   1.78961   1.79431   1.81887
 Alpha virt. eigenvalues --    1.83616   1.85081   1.88147   1.90256   1.90969
 Alpha virt. eigenvalues --    1.93445   1.94788   1.97080   1.99273   2.00358
 Alpha virt. eigenvalues --    2.02350   2.04402   2.07856   2.10810   2.15847
 Alpha virt. eigenvalues --    2.18781   2.24728   2.39781   2.42710   2.55313
 Alpha virt. eigenvalues --    2.75398   2.87877   2.96689   3.15161   3.41894
 Alpha virt. eigenvalues --    3.46531   3.58943   4.03249
          Condensed to atoms (all electrons):
 Mulliken charges:
               1
     1  F   -0.282903
     2  O   -0.529543
     3  O   -0.497780
     4  O   -0.540940
     5  O   -0.519243
     6  N   -0.669539
     7  N   -0.576974
     8  N   -0.843847
     9  C   -0.235064
    10  C   -0.045291
    11  C   -0.188353
    12  C   -0.191904
    13  C   -0.358366
    14  C   -0.035041
    15  C   -0.367288
    16  C   -0.408857
    17  C   -0.361943
    18  C   -0.215602
    19  C    0.283622
    20  C    0.360688
    21  C    0.278764
    22  C   -0.077970
    23  C    0.278031
    24  C    0.213616
    25  C   -0.196918
    26  C   -0.206723
    27  C    0.408534
    28  C    0.662106
    29  C   -0.360350
    30  H    0.197782
    31  H    0.203826
    32  H    0.190013
    33  H    0.221158
    34  H    0.201652
    35  H    0.203983
    36  H    0.193195
    37  H    0.196789
    38  H    0.226821
    39  H    0.184456
    40  H    0.197490
    41  H    0.270318
    42  H    0.226891
    43  H    0.217064
    44  H    0.214545
    45  H    0.224814
    46  H    0.163167
    47  H    0.197337
    48  H    0.264603
    49  H    0.240316
    50  H    0.198989
    51  H    0.224379
    52  H    0.206837
    53  H    0.358653
 Sum of Mulliken charges =   0.00000
 Mulliken charges with hydrogens summed into heavy atoms:
               1
     1  F   -0.282903
     2  O   -0.529543
     3  O   -0.497780
     4  O   -0.182287
     5  O   -0.519243
     6  N   -0.669539
     7  N   -0.306655
     8  N   -0.843847
     9  C   -0.037282
    10  C    0.158535
    11  C    0.222818
    12  C    0.213731
    13  C    0.031618
    14  C    0.191780
    15  C    0.014658
    16  C    0.035098
    17  C    0.077416
    18  C    0.144902
    19  C    0.283622
    20  C    0.360688
    21  C    0.278764
    22  C   -0.077970
    23  C    0.278031
    24  C    0.478219
    25  C    0.043399
    26  C   -0.206723
    27  C    0.408534
    28  C    0.662106
    29  C    0.269855
 Electronic spatial extent (au):  <R**2>=          13290.0768
 Charge=              0.0000 electrons
 Dipole moment (field-independent basis, Debye):
    X=             -4.0139    Y=              5.7658    Z=              1.0943  Tot=              7.1101
 Quadrupole moment (field-independent basis, Debye-Ang):
   XX=           -180.1921   YY=           -166.9035   ZZ=           -160.7563
   XY=              5.9062   XZ=              0.3141   YZ=              1.3830
 Traceless Quadrupole moment (field-independent basis, Debye-Ang):
   XX=            -10.9081   YY=              2.3805   ZZ=              8.5276
   XY=              5.9062   XZ=              0.3141   YZ=              1.3830
 Octapole moment (field-independent basis, Debye-Ang**2):
  XXX=             15.3556  YYY=             61.1194  ZZZ=              9.9216  XYY=            -16.4126
  XXY=            -23.6307  XXZ=            -12.9077  XZZ=             -9.6239  YZZ=              5.5730
  YYZ=             10.5629  XYZ=              5.5123
 Hexadecapole moment (field-independent basis, Debye-Ang**3):
 XXXX=         -13276.5770 YYYY=          -3039.8394 ZZZZ=          -1073.7286 XXXY=           -505.7866
 XXXZ=            -35.0477 YYYX=             75.0066 YYYZ=             24.1664 ZZZX=            -11.1355
 ZZZY=             40.9813 XXYY=          -2582.3842 XXZZ=          -2235.5894 YYZZ=           -677.3564
 XXYZ=             -8.2573 YYXZ=              5.1877 ZZXY=            -37.9802
 N-N= 2.891819837015D+03 E-N=-8.982959102302D+03  KE= 1.360716177190D+03
 1\1\GINC-NODE038\FOpt\RB3LYP\3-21G\C21H24F1N3O4\SUPERCOMPUTO1\06-Jul-2
 020\0\\# opt b3lyp/3-21g geom=connectivity\\Title Card Required\\0,1\F
 ,-10.3292660111,-5.8526774108,9.0007107134\O,-8.9881209113,-10.4588387
 092,8.5165933385\O,-5.4532796268,-5.696938938,9.8114718219\O,-2.858743
 5793,-6.4918374064,10.057980683\O,-2.4140538961,-8.7293805337,10.00776
 82025\N,-10.9924273731,-8.5504644255,8.4413801758\N,-14.158421957,-9.6
 251642384,10.0487161938\N,-6.3323485846,-9.7300743311,9.4001948627\C,-
 13.2750008686,-7.8626724765,8.4967221293\C,-13.2030624943,-9.344015903
 4,8.9683530835\C,-11.9749983783,-7.7169278037,7.6822511803\C,-11.68710
 52625,-9.5623487415,9.2885304584\C,-13.2874687108,-6.8802134617,9.6909
 315323\C,-6.5919774608,-11.1730022123,9.4810635124\C,-14.3346791723,-7
 .2862765303,10.7491044976\C,-5.8893074827,-11.9674793271,10.5765303003
 \C,-7.3895585692,-11.699214736,10.648518407\C,-14.0724988968,-8.726703
 9408,11.2212543411\C,-9.6942778096,-8.1541110962,8.7478303674\C,-7.361
 3817518,-8.7786284873,9.2154681664\C,-8.677291209,-9.1257438664,8.8379
 182363\C,-7.042099119,-7.4160654839,9.3882790679\C,-9.3357160259,-6.81
 49887555,9.0082281859\C,-5.0607111505,-9.2935737251,9.6072954065\C,-8.
 0451801308,-6.4492914824,9.2776724548\C,-4.6770654534,-7.9868651466,9.
 7254792309\C,-5.6640833508,-6.9170469377,9.6666427145\C,-3.2349236923,
 -7.8055923312,9.9383832375\C,-9.2179979372,-10.6629521724,7.0601254822
 \H,-14.1661579586,-7.714059498,7.8796317782\H,-13.4704467492,-9.981984
 6058,8.1172378296\H,-12.1029029317,-8.1231826357,6.6693869664\H,-11.63
 57164704,-6.6861472481,7.6206764459\H,-11.486517117,-9.3605440152,10.3
 47393899\H,-11.352922089,-10.5766360268,9.0596486454\H,-13.5002350427,
 -5.8710284768,9.3165011086\H,-12.2872195073,-6.8453087028,10.136716455
 9\H,-6.7348245447,-11.6560152386,8.5250135769\H,-14.2966370081,-6.5999
 505664,11.6031398431\H,-15.3385851885,-7.248398258,10.3109309422\H,-14
 .1742449293,-10.6148772978,10.3065711431\H,-5.261626216,-11.4307581834
 ,11.2766899144\H,-5.548673821,-12.9623799114,10.317536602\H,-8.0852140
 517,-12.5014647644,10.4418048477\H,-7.7209113763,-10.9699934981,11.377
 0740496\H,-13.0951485273,-8.7580733621,11.7377209911\H,-14.8406733375,
 -9.0378957625,11.9371568125\H,-4.2969443921,-10.0548309343,9.695427822
 4\H,-7.7676879425,-5.4180308308,9.4494285708\H,-8.3242592433,-10.38925
 02546,6.4896053692\H,-10.0728049098,-10.0698737765,6.7307997522\H,-9.4
 240982211,-11.7287473332,6.9532875307\H,-1.8715015585,-6.4804782076,10
 .1992211192\\Version=ES64L-G09RevD.01\State=1-A\HF=-1372.0731112\RMSD=
 5.489e-09\RMSF=2.129e-06\Dipole=-1.5817452,-2.2496833,-0.5119857\Quadr
 upole=-8.1498168,1.8393541,6.3104627,-4.3291815,-0.8451681,0.8217266\P
 G=C01 [X(C21H24F1N3O4)]\\@


 ALL OUR THINKING ABOUT NATURE MUST NECESSARILY MOVE IN CIRCLES OR SPIRALS;
 FOR WE CAN ONLY UNDERSTAND NATURE IF WE THINK ABOUT HER, AND WE CAN ONLY
 THINK BECAUSE OUR BRAIN IS BUILT IN ACCORDANCE WITH NATURE'S LAWS.

                                             -- TIMOTHY FERRIS, "GALAXIES"
 Job cpu time:       0 days  2 hours 53 minutes  6.0 seconds.
 File lengths (MBytes):  RWF=     63 Int=      0 D2E=      0 Chk=     10 Scr=      1
 Normal termination of Gaussian 09 at Mon Jul  6 12:34:16 2020.
