 Entering Gaussian System, Link 0=g09
 Input=grepafloxacina.gjf
 Output=grepafloxacina.log
 Initial command:
 /usr/local/cluster_programs/g09/l1.exe "/tmp/scratch/63945.prometeo/Gau-26173.inp" -scrdir="/tmp/scratch/63945.prometeo/"
 Entering Link 1 = /usr/local/cluster_programs/g09/l1.exe PID=     26174.
  
 Copyright (c) 1988,1990,1992,1993,1995,1998,2003,2009,2013,
            Gaussian, Inc.  All Rights Reserved.
  
 This is part of the Gaussian(R) 09 program.  It is based on
 the Gaussian(R) 03 system (copyright 2003, Gaussian, Inc.),
 the Gaussian(R) 98 system (copyright 1998, Gaussian, Inc.),
 the Gaussian(R) 94 system (copyright 1995, Gaussian, Inc.),
 the Gaussian 92(TM) system (copyright 1992, Gaussian, Inc.),
 the Gaussian 90(TM) system (copyright 1990, Gaussian, Inc.),
 the Gaussian 88(TM) system (copyright 1988, Gaussian, Inc.),
 the Gaussian 86(TM) system (copyright 1986, Carnegie Mellon
 University), and the Gaussian 82(TM) system (copyright 1983,
 Carnegie Mellon University). Gaussian is a federally registered
 trademark of Gaussian, Inc.
  
 This software contains proprietary and confidential information,
 including trade secrets, belonging to Gaussian, Inc.
  
 This software is provided under written license and may be
 used, copied, transmitted, or stored only in accord with that
 written license.
  
 The following legend is applicable only to US Government
 contracts under FAR:
  
                    RESTRICTED RIGHTS LEGEND
  
 Use, reproduction and disclosure by the US Government is
 subject to restrictions as set forth in subparagraphs (a)
 and (c) of the Commercial Computer Software - Restricted
 Rights clause in FAR 52.227-19.
  
 Gaussian, Inc.
 340 Quinnipiac St., Bldg. 40, Wallingford CT 06492
  
  
 ---------------------------------------------------------------
 Warning -- This program may not be used in any manner that
 competes with the business of Gaussian, Inc. or will provide
 assistance to any competitor of Gaussian, Inc.  The licensee
 of this program is prohibited from giving any competitor of
 Gaussian, Inc. access to this program.  By using this program,
 the user acknowledges that Gaussian, Inc. is engaged in the
 business of creating and licensing software in the field of
 computational chemistry and represents and warrants to the
 licensee that it is not a competitor of Gaussian, Inc. and that
 it will not use this program in any manner prohibited above.
 ---------------------------------------------------------------
  

 Cite this work as:
 Gaussian 09, Revision D.01,
 M. J. Frisch, G. W. Trucks, H. B. Schlegel, G. E. Scuseria, 
 M. A. Robb, J. R. Cheeseman, G. Scalmani, V. Barone, B. Mennucci, 
 G. A. Petersson, H. Nakatsuji, M. Caricato, X. Li, H. P. Hratchian, 
 A. F. Izmaylov, J. Bloino, G. Zheng, J. L. Sonnenberg, M. Hada, 
 M. Ehara, K. Toyota, R. Fukuda, J. Hasegawa, M. Ishida, T. Nakajima, 
 Y. Honda, O. Kitao, H. Nakai, T. Vreven, J. A. Montgomery, Jr., 
 J. E. Peralta, F. Ogliaro, M. Bearpark, J. J. Heyd, E. Brothers, 
 K. N. Kudin, V. N. Staroverov, T. Keith, R. Kobayashi, J. Normand, 
 K. Raghavachari, A. Rendell, J. C. Burant, S. S. Iyengar, J. Tomasi, 
 M. Cossi, N. Rega, J. M. Millam, M. Klene, J. E. Knox, J. B. Cross, 
 V. Bakken, C. Adamo, J. Jaramillo, R. Gomperts, R. E. Stratmann, 
 O. Yazyev, A. J. Austin, R. Cammi, C. Pomelli, J. W. Ochterski, 
 R. L. Martin, K. Morokuma, V. G. Zakrzewski, G. A. Voth, 
 P. Salvador, J. J. Dannenberg, S. Dapprich, A. D. Daniels, 
 O. Farkas, J. B. Foresman, J. V. Ortiz, J. Cioslowski, 
 and D. J. Fox, Gaussian, Inc., Wallingford CT, 2013.
 
 ******************************************
 Gaussian 09:  ES64L-G09RevD.01 24-Apr-2013
                 6-Jul-2020 
 ******************************************
 %nprocshared=20
 Will use up to   20 processors via shared memory.
 -----------------------------------
 # opt b3lyp/3-21g geom=connectivity
 -----------------------------------
 1/14=-1,18=20,19=15,26=3,38=1,57=2/1,3;
 2/9=110,12=2,17=6,18=5,40=1/2;
 3/5=5,11=2,16=1,25=1,30=1,71=1,74=-5/1,2,3;
 4//1;
 5/5=2,38=5/2;
 6/7=2,8=2,9=2,10=2,28=1/1;
 7//1,2,3,16;
 1/14=-1,18=20,19=15,26=3/3(2);
 2/9=110/2;
 99//99;
 2/9=110/2;
 3/5=5,11=2,16=1,25=1,30=1,71=1,74=-5/1,2,3;
 4/5=5,16=3,69=1/1;
 5/5=2,38=5/2;
 7//1,2,3,16;
 1/14=-1,18=20,19=15,26=3/3(-5);
 2/9=110/2;
 6/7=2,8=2,9=2,10=2,19=2,28=1/1;
 99/9=1/99;
 -------------------
 Title Card Required
 -------------------
 Symbolic Z-matrix:
 Charge =  0 Multiplicity = 1
 C                     9.93195   8.58868   7.95998 
 C                     9.70258   7.71977   9.16687 
 C                     10.5103   8.98273   9.29068 
 H                     11.5913   8.91357   9.3932 
 H                     10.0506   9.81706   9.81715 
 H                     8.69788   7.72858   9.58944 
 H                     10.2153   6.76066   9.19473 
 H                     10.631    8.21187   7.2078 
 N                     6.65693   5.26674   5.80694 
 C                     7.75373   4.59389   5.12488 
 C                     8.3534    3.46906   5.97127 
 N                     7.27684   2.60021   6.43192 
 C                     5.63074   4.3695    6.33409 
 C                     6.29451   3.32119   7.23765 
 H                     7.61735   1.75848   6.91068 
 H                     8.51578   5.33501   4.86193 
 H                     7.3574    4.16657   4.18523 
 H                     5.09683   3.85928   5.51224 
 H                     4.89027   4.93858   6.90888 
 H                     6.7993    3.89567   8.05174 
 H                     9.05829   2.88015   5.36197 
 H                     8.92115   3.93183   6.81135 
 O                     5.49755   11.5974   6.66487 
 O                     7.12006   13.7724   6.67478 
 O                     9.12983   13.4011   7.68606 
 N                     8.82174   9.34631   7.42873 
 C                     7.76827   7.31143   6.61209 
 C                     7.71537   8.69192   6.84356 
 C                     6.56121   9.45409   6.53505 
 C                     8.86975   10.7004   7.47348 
 C                     7.82356   11.5074   7.11024 
 C                     6.53751   10.9182   6.75659 
 C                     5.42783   8.77515   6.00764 
 C                     6.65948   6.62494   6.10041 
 C                     5.51177   7.40513   5.8435 
 C                     8.08535   12.9545   7.20135 
 H                     9.79902   11.1334   7.83877 
 C                     4.17726   9.47297   5.56156 
 H                     7.48134   14.6823   6.79208 
 F                     4.43424   6.745     5.29717 
 H                     3.70229   9.99904   6.39849 
 H                     4.41835   10.2641   4.8402 
 H                     3.48475   8.75972   5.10656 
 C                     5.29982   2.35869   7.86084 
 H                     4.81003   1.75059   7.08901 
 H                     4.53977   2.89322   8.44591 
 H                     5.8106    1.67179   8.54847 
 H                     8.65989   6.74364   6.87031 
 

 GradGradGradGradGradGradGradGradGradGradGradGradGradGradGradGradGradGrad
 Berny optimization.
 Initialization pass.
                           ----------------------------
                           !    Initial Parameters    !
                           ! (Angstroms and Degrees)  !
 --------------------------                            --------------------------
 ! Name  Definition              Value          Derivative Info.                !
 --------------------------------------------------------------------------------
 ! R1    R(1,2)                  1.5047         estimate D2E/DX2                !
 ! R2    R(1,3)                  1.5035         estimate D2E/DX2                !
 ! R3    R(1,8)                  1.0938         estimate D2E/DX2                !
 ! R4    R(1,26)                 1.4453         estimate D2E/DX2                !
 ! R5    R(2,3)                  1.5043         estimate D2E/DX2                !
 ! R6    R(2,6)                  1.09           estimate D2E/DX2                !
 ! R7    R(2,7)                  1.0879         estimate D2E/DX2                !
 ! R8    R(3,4)                  1.0881         estimate D2E/DX2                !
 ! R9    R(3,5)                  1.0884         estimate D2E/DX2                !
 ! R10   R(9,10)                 1.4563         estimate D2E/DX2                !
 ! R11   R(9,13)                 1.4615         estimate D2E/DX2                !
 ! R12   R(9,34)                 1.3895         estimate D2E/DX2                !
 ! R13   R(10,11)                1.5301         estimate D2E/DX2                !
 ! R14   R(10,16)                1.095          estimate D2E/DX2                !
 ! R15   R(10,17)                1.1057         estimate D2E/DX2                !
 ! R16   R(11,12)                1.4581         estimate D2E/DX2                !
 ! R17   R(11,21)                1.1022         estimate D2E/DX2                !
 ! R18   R(11,22)                1.1146         estimate D2E/DX2                !
 ! R19   R(12,14)                1.4608         estimate D2E/DX2                !
 ! R20   R(12,15)                1.0265         estimate D2E/DX2                !
 ! R21   R(13,14)                1.5349         estimate D2E/DX2                !
 ! R22   R(13,18)                1.1049         estimate D2E/DX2                !
 ! R23   R(13,19)                1.0966         estimate D2E/DX2                !
 ! R24   R(14,20)                1.117          estimate D2E/DX2                !
 ! R25   R(14,44)                1.518          estimate D2E/DX2                !
 ! R26   R(23,32)                1.2455         estimate D2E/DX2                !
 ! R27   R(24,36)                1.3704         estimate D2E/DX2                !
 ! R28   R(24,39)                0.986          estimate D2E/DX2                !
 ! R29   R(25,36)                1.235          estimate D2E/DX2                !
 ! R30   R(26,28)                1.4123         estimate D2E/DX2                !
 ! R31   R(26,30)                1.3557         estimate D2E/DX2                !
 ! R32   R(27,28)                1.4008         estimate D2E/DX2                !
 ! R33   R(27,34)                1.4009         estimate D2E/DX2                !
 ! R34   R(27,48)                1.0881         estimate D2E/DX2                !
 ! R35   R(28,29)                1.4171         estimate D2E/DX2                !
 ! R36   R(29,32)                1.481          estimate D2E/DX2                !
 ! R37   R(29,33)                1.4226         estimate D2E/DX2                !
 ! R38   R(30,31)                1.3703         estimate D2E/DX2                !
 ! R39   R(30,37)                1.0883         estimate D2E/DX2                !
 ! R40   R(31,32)                1.4581         estimate D2E/DX2                !
 ! R41   R(31,36)                1.4734         estimate D2E/DX2                !
 ! R42   R(33,35)                1.3824         estimate D2E/DX2                !
 ! R43   R(33,38)                1.5            estimate D2E/DX2                !
 ! R44   R(34,35)                1.4114         estimate D2E/DX2                !
 ! R45   R(35,40)                1.3767         estimate D2E/DX2                !
 ! R46   R(38,41)                1.0967         estimate D2E/DX2                !
 ! R47   R(38,42)                1.0974         estimate D2E/DX2                !
 ! R48   R(38,43)                1.0933         estimate D2E/DX2                !
 ! R49   R(44,45)                1.0979         estimate D2E/DX2                !
 ! R50   R(44,46)                1.098          estimate D2E/DX2                !
 ! R51   R(44,47)                1.098          estimate D2E/DX2                !
 ! A1    A(2,1,8)              116.7466         estimate D2E/DX2                !
 ! A2    A(2,1,26)             118.714          estimate D2E/DX2                !
 ! A3    A(3,1,8)              116.9413         estimate D2E/DX2                !
 ! A4    A(3,1,26)             118.9098         estimate D2E/DX2                !
 ! A5    A(8,1,26)             114.7556         estimate D2E/DX2                !
 ! A6    A(1,2,6)              116.5378         estimate D2E/DX2                !
 ! A7    A(1,2,7)              117.2444         estimate D2E/DX2                !
 ! A8    A(3,2,6)              117.1451         estimate D2E/DX2                !
 ! A9    A(3,2,7)              119.0136         estimate D2E/DX2                !
 ! A10   A(6,2,7)              115.5698         estimate D2E/DX2                !
 ! A11   A(1,3,4)              116.6738         estimate D2E/DX2                !
 ! A12   A(1,3,5)              117.8109         estimate D2E/DX2                !
 ! A13   A(2,3,4)              119.2002         estimate D2E/DX2                !
 ! A14   A(2,3,5)              117.1695         estimate D2E/DX2                !
 ! A15   A(4,3,5)              115.01           estimate D2E/DX2                !
 ! A16   A(10,9,13)            114.4621         estimate D2E/DX2                !
 ! A17   A(10,9,34)            123.307          estimate D2E/DX2                !
 ! A18   A(13,9,34)            121.6802         estimate D2E/DX2                !
 ! A19   A(9,10,11)            112.0699         estimate D2E/DX2                !
 ! A20   A(9,10,16)            108.8975         estimate D2E/DX2                !
 ! A21   A(9,10,17)            107.8547         estimate D2E/DX2                !
 ! A22   A(11,10,16)           110.9545         estimate D2E/DX2                !
 ! A23   A(11,10,17)           109.0536         estimate D2E/DX2                !
 ! A24   A(16,10,17)           107.8744         estimate D2E/DX2                !
 ! A25   A(10,11,12)           108.8712         estimate D2E/DX2                !
 ! A26   A(10,11,21)           109.7323         estimate D2E/DX2                !
 ! A27   A(10,11,22)           108.1402         estimate D2E/DX2                !
 ! A28   A(12,11,21)           109.1738         estimate D2E/DX2                !
 ! A29   A(12,11,22)           112.6679         estimate D2E/DX2                !
 ! A30   A(21,11,22)           108.2238         estimate D2E/DX2                !
 ! A31   A(11,12,14)           112.1263         estimate D2E/DX2                !
 ! A32   A(11,12,15)           113.02           estimate D2E/DX2                !
 ! A33   A(14,12,15)           111.7484         estimate D2E/DX2                !
 ! A34   A(9,13,14)            109.146          estimate D2E/DX2                !
 ! A35   A(9,13,18)            110.7624         estimate D2E/DX2                !
 ! A36   A(9,13,19)            110.1565         estimate D2E/DX2                !
 ! A37   A(14,13,18)           109.3567         estimate D2E/DX2                !
 ! A38   A(14,13,19)           109.7478         estimate D2E/DX2                !
 ! A39   A(18,13,19)           107.6515         estimate D2E/DX2                !
 ! A40   A(12,14,13)           107.6494         estimate D2E/DX2                !
 ! A41   A(12,14,20)           110.6063         estimate D2E/DX2                !
 ! A42   A(12,14,44)           110.7409         estimate D2E/DX2                !
 ! A43   A(13,14,20)           105.8558         estimate D2E/DX2                !
 ! A44   A(13,14,44)           113.0392         estimate D2E/DX2                !
 ! A45   A(20,14,44)           108.8471         estimate D2E/DX2                !
 ! A46   A(36,24,39)           104.2978         estimate D2E/DX2                !
 ! A47   A(1,26,28)            120.7413         estimate D2E/DX2                !
 ! A48   A(1,26,30)            118.9642         estimate D2E/DX2                !
 ! A49   A(28,26,30)           120.2791         estimate D2E/DX2                !
 ! A50   A(28,27,34)           120.8914         estimate D2E/DX2                !
 ! A51   A(28,27,48)           120.3964         estimate D2E/DX2                !
 ! A52   A(34,27,48)           118.654          estimate D2E/DX2                !
 ! A53   A(26,28,27)           119.7037         estimate D2E/DX2                !
 ! A54   A(26,28,29)           118.6208         estimate D2E/DX2                !
 ! A55   A(27,28,29)           121.6574         estimate D2E/DX2                !
 ! A56   A(28,29,32)           120.8094         estimate D2E/DX2                !
 ! A57   A(28,29,33)           118.2235         estimate D2E/DX2                !
 ! A58   A(32,29,33)           120.9671         estimate D2E/DX2                !
 ! A59   A(26,30,31)           123.535          estimate D2E/DX2                !
 ! A60   A(26,30,37)           116.0214         estimate D2E/DX2                !
 ! A61   A(31,30,37)           120.4349         estimate D2E/DX2                !
 ! A62   A(30,31,32)           119.9799         estimate D2E/DX2                !
 ! A63   A(30,31,36)           115.2371         estimate D2E/DX2                !
 ! A64   A(32,31,36)           124.6505         estimate D2E/DX2                !
 ! A65   A(23,32,29)           122.7836         estimate D2E/DX2                !
 ! A66   A(23,32,31)           122.2725         estimate D2E/DX2                !
 ! A67   A(29,32,31)           114.9386         estimate D2E/DX2                !
 ! A68   A(29,33,35)           117.9465         estimate D2E/DX2                !
 ! A69   A(29,33,38)           123.5371         estimate D2E/DX2                !
 ! A70   A(35,33,38)           118.4496         estimate D2E/DX2                !
 ! A71   A(9,34,27)            123.8884         estimate D2E/DX2                !
 ! A72   A(9,34,35)            120.0255         estimate D2E/DX2                !
 ! A73   A(27,34,35)           116.0548         estimate D2E/DX2                !
 ! A74   A(33,35,34)           125.143          estimate D2E/DX2                !
 ! A75   A(33,35,40)           118.347          estimate D2E/DX2                !
 ! A76   A(34,35,40)           116.3369         estimate D2E/DX2                !
 ! A77   A(24,36,25)           122.0515         estimate D2E/DX2                !
 ! A78   A(24,36,31)           115.9292         estimate D2E/DX2                !
 ! A79   A(25,36,31)           121.9838         estimate D2E/DX2                !
 ! A80   A(33,38,41)           110.9336         estimate D2E/DX2                !
 ! A81   A(33,38,42)           110.3467         estimate D2E/DX2                !
 ! A82   A(33,38,43)           110.387          estimate D2E/DX2                !
 ! A83   A(41,38,42)           104.5342         estimate D2E/DX2                !
 ! A84   A(41,38,43)           110.8669         estimate D2E/DX2                !
 ! A85   A(42,38,43)           109.6266         estimate D2E/DX2                !
 ! A86   A(14,44,45)           110.7881         estimate D2E/DX2                !
 ! A87   A(14,44,46)           111.325          estimate D2E/DX2                !
 ! A88   A(14,44,47)           110.4234         estimate D2E/DX2                !
 ! A89   A(45,44,46)           109.5976         estimate D2E/DX2                !
 ! A90   A(45,44,47)           107.5353         estimate D2E/DX2                !
 ! A91   A(46,44,47)           107.0289         estimate D2E/DX2                !
 ! D1    D(8,1,2,6)           -145.3718         estimate D2E/DX2                !
 ! D2    D(8,1,2,7)             -2.2618         estimate D2E/DX2                !
 ! D3    D(26,1,2,6)            -1.2033         estimate D2E/DX2                !
 ! D4    D(26,1,2,7)           141.9068         estimate D2E/DX2                !
 ! D5    D(8,1,3,4)              3.0817         estimate D2E/DX2                !
 ! D6    D(8,1,3,5)            146.2032         estimate D2E/DX2                !
 ! D7    D(26,1,3,4)          -141.7309         estimate D2E/DX2                !
 ! D8    D(26,1,3,5)             1.3907         estimate D2E/DX2                !
 ! D9    D(2,1,26,28)          -66.5284         estimate D2E/DX2                !
 ! D10   D(2,1,26,30)          114.8973         estimate D2E/DX2                !
 ! D11   D(3,1,26,28)         -136.1259         estimate D2E/DX2                !
 ! D12   D(3,1,26,30)           45.2998         estimate D2E/DX2                !
 ! D13   D(8,1,26,28)           78.325          estimate D2E/DX2                !
 ! D14   D(8,1,26,30)         -100.2493         estimate D2E/DX2                !
 ! D15   D(6,2,3,4)            147.784          estimate D2E/DX2                !
 ! D16   D(6,2,3,5)              1.5571         estimate D2E/DX2                !
 ! D17   D(7,2,3,4)              0.7487         estimate D2E/DX2                !
 ! D18   D(7,2,3,5)           -145.4782         estimate D2E/DX2                !
 ! D19   D(13,9,10,11)         -50.9668         estimate D2E/DX2                !
 ! D20   D(13,9,10,16)        -174.1066         estimate D2E/DX2                !
 ! D21   D(13,9,10,17)          69.0789         estimate D2E/DX2                !
 ! D22   D(34,9,10,11)         120.6364         estimate D2E/DX2                !
 ! D23   D(34,9,10,16)          -2.5034         estimate D2E/DX2                !
 ! D24   D(34,9,10,17)        -119.318          estimate D2E/DX2                !
 ! D25   D(10,9,13,14)          54.3355         estimate D2E/DX2                !
 ! D26   D(10,9,13,18)         -66.1182         estimate D2E/DX2                !
 ! D27   D(10,9,13,19)         174.8953         estimate D2E/DX2                !
 ! D28   D(34,9,13,14)        -117.4192         estimate D2E/DX2                !
 ! D29   D(34,9,13,18)         122.1271         estimate D2E/DX2                !
 ! D30   D(34,9,13,19)           3.1406         estimate D2E/DX2                !
 ! D31   D(10,9,34,27)         -43.3128         estimate D2E/DX2                !
 ! D32   D(10,9,34,35)         134.5713         estimate D2E/DX2                !
 ! D33   D(13,9,34,27)         127.7012         estimate D2E/DX2                !
 ! D34   D(13,9,34,35)         -54.4148         estimate D2E/DX2                !
 ! D35   D(9,10,11,12)          51.1363         estimate D2E/DX2                !
 ! D36   D(9,10,11,21)         170.5656         estimate D2E/DX2                !
 ! D37   D(9,10,11,22)         -71.5862         estimate D2E/DX2                !
 ! D38   D(16,10,11,12)        173.108          estimate D2E/DX2                !
 ! D39   D(16,10,11,21)        -67.4627         estimate D2E/DX2                !
 ! D40   D(16,10,11,22)         50.3855         estimate D2E/DX2                !
 ! D41   D(17,10,11,12)        -68.2078         estimate D2E/DX2                !
 ! D42   D(17,10,11,21)         51.2215         estimate D2E/DX2                !
 ! D43   D(17,10,11,22)        169.0696         estimate D2E/DX2                !
 ! D44   D(10,11,12,14)        -59.6365         estimate D2E/DX2                !
 ! D45   D(10,11,12,15)        172.9653         estimate D2E/DX2                !
 ! D46   D(21,11,12,14)       -179.413          estimate D2E/DX2                !
 ! D47   D(21,11,12,15)         53.1888         estimate D2E/DX2                !
 ! D48   D(22,11,12,14)         60.3193         estimate D2E/DX2                !
 ! D49   D(22,11,12,15)        -67.0789         estimate D2E/DX2                !
 ! D50   D(11,12,14,13)         63.9365         estimate D2E/DX2                !
 ! D51   D(11,12,14,20)        -51.2738         estimate D2E/DX2                !
 ! D52   D(11,12,14,44)       -172.0327         estimate D2E/DX2                !
 ! D53   D(15,12,14,13)       -167.9885         estimate D2E/DX2                !
 ! D54   D(15,12,14,20)         76.8012         estimate D2E/DX2                !
 ! D55   D(15,12,14,44)        -43.9577         estimate D2E/DX2                !
 ! D56   D(9,13,14,12)         -58.71           estimate D2E/DX2                !
 ! D57   D(9,13,14,20)          59.6041         estimate D2E/DX2                !
 ! D58   D(9,13,14,44)         178.6636         estimate D2E/DX2                !
 ! D59   D(18,13,14,12)         62.602          estimate D2E/DX2                !
 ! D60   D(18,13,14,20)       -179.0839         estimate D2E/DX2                !
 ! D61   D(18,13,14,44)        -60.0244         estimate D2E/DX2                !
 ! D62   D(19,13,14,12)       -179.5198         estimate D2E/DX2                !
 ! D63   D(19,13,14,20)        -61.2057         estimate D2E/DX2                !
 ! D64   D(19,13,14,44)         57.8538         estimate D2E/DX2                !
 ! D65   D(12,14,44,45)        -56.1657         estimate D2E/DX2                !
 ! D66   D(12,14,44,46)       -178.397          estimate D2E/DX2                !
 ! D67   D(12,14,44,47)         62.8632         estimate D2E/DX2                !
 ! D68   D(13,14,44,45)         64.7217         estimate D2E/DX2                !
 ! D69   D(13,14,44,46)        -57.5097         estimate D2E/DX2                !
 ! D70   D(13,14,44,47)       -176.2495         estimate D2E/DX2                !
 ! D71   D(20,14,44,45)       -177.9631         estimate D2E/DX2                !
 ! D72   D(20,14,44,46)         59.8056         estimate D2E/DX2                !
 ! D73   D(20,14,44,47)        -58.9342         estimate D2E/DX2                !
 ! D74   D(39,24,36,25)          0.1131         estimate D2E/DX2                !
 ! D75   D(39,24,36,31)       -177.7591         estimate D2E/DX2                !
 ! D76   D(1,26,28,27)          -8.5832         estimate D2E/DX2                !
 ! D77   D(1,26,28,29)         169.892          estimate D2E/DX2                !
 ! D78   D(30,26,28,27)        169.9723         estimate D2E/DX2                !
 ! D79   D(30,26,28,29)        -11.5524         estimate D2E/DX2                !
 ! D80   D(1,26,30,31)        -173.8647         estimate D2E/DX2                !
 ! D81   D(1,26,30,37)           5.0651         estimate D2E/DX2                !
 ! D82   D(28,26,30,31)          7.5542         estimate D2E/DX2                !
 ! D83   D(28,26,30,37)       -173.516          estimate D2E/DX2                !
 ! D84   D(34,27,28,26)        176.5145         estimate D2E/DX2                !
 ! D85   D(34,27,28,29)         -1.9131         estimate D2E/DX2                !
 ! D86   D(48,27,28,26)         -0.6716         estimate D2E/DX2                !
 ! D87   D(48,27,28,29)       -179.0992         estimate D2E/DX2                !
 ! D88   D(28,27,34,9)         177.8427         estimate D2E/DX2                !
 ! D89   D(28,27,34,35)         -0.1182         estimate D2E/DX2                !
 ! D90   D(48,27,34,9)          -4.9231         estimate D2E/DX2                !
 ! D91   D(48,27,34,35)        177.1161         estimate D2E/DX2                !
 ! D92   D(26,28,29,32)          3.068          estimate D2E/DX2                !
 ! D93   D(26,28,29,33)       -176.9275         estimate D2E/DX2                !
 ! D94   D(27,28,29,32)       -178.4879         estimate D2E/DX2                !
 ! D95   D(27,28,29,33)          1.5166         estimate D2E/DX2                !
 ! D96   D(28,29,32,23)       -170.4427         estimate D2E/DX2                !
 ! D97   D(28,29,32,31)          8.7318         estimate D2E/DX2                !
 ! D98   D(33,29,32,23)          9.5527         estimate D2E/DX2                !
 ! D99   D(33,29,32,31)       -171.2728         estimate D2E/DX2                !
 ! D100  D(28,29,33,35)          0.8764         estimate D2E/DX2                !
 ! D101  D(28,29,33,38)       -176.1007         estimate D2E/DX2                !
 ! D102  D(32,29,33,35)       -179.1191         estimate D2E/DX2                !
 ! D103  D(32,29,33,38)          3.9038         estimate D2E/DX2                !
 ! D104  D(26,30,31,32)          5.3282         estimate D2E/DX2                !
 ! D105  D(26,30,31,36)       -178.6636         estimate D2E/DX2                !
 ! D106  D(37,30,31,32)       -173.5564         estimate D2E/DX2                !
 ! D107  D(37,30,31,36)          2.4518         estimate D2E/DX2                !
 ! D108  D(30,31,32,23)        166.2361         estimate D2E/DX2                !
 ! D109  D(30,31,32,29)        -12.9431         estimate D2E/DX2                !
 ! D110  D(36,31,32,23)         -9.3738         estimate D2E/DX2                !
 ! D111  D(36,31,32,29)        171.447          estimate D2E/DX2                !
 ! D112  D(30,31,36,24)        171.5628         estimate D2E/DX2                !
 ! D113  D(30,31,36,25)         -6.311          estimate D2E/DX2                !
 ! D114  D(32,31,36,24)        -12.6408         estimate D2E/DX2                !
 ! D115  D(32,31,36,25)        169.4854         estimate D2E/DX2                !
 ! D116  D(29,33,35,34)         -3.0922         estimate D2E/DX2                !
 ! D117  D(29,33,35,40)       -178.1236         estimate D2E/DX2                !
 ! D118  D(38,33,35,34)        174.0422         estimate D2E/DX2                !
 ! D119  D(38,33,35,40)         -0.9892         estimate D2E/DX2                !
 ! D120  D(29,33,38,41)        -62.1069         estimate D2E/DX2                !
 ! D121  D(29,33,38,42)         53.2611         estimate D2E/DX2                !
 ! D122  D(29,33,38,43)        174.5932         estimate D2E/DX2                !
 ! D123  D(35,33,38,41)        120.9303         estimate D2E/DX2                !
 ! D124  D(35,33,38,42)       -123.7017         estimate D2E/DX2                !
 ! D125  D(35,33,38,43)         -2.3696         estimate D2E/DX2                !
 ! D126  D(9,34,35,33)        -175.3425         estimate D2E/DX2                !
 ! D127  D(9,34,35,40)          -0.2216         estimate D2E/DX2                !
 ! D128  D(27,34,35,33)          2.7024         estimate D2E/DX2                !
 ! D129  D(27,34,35,40)        177.8233         estimate D2E/DX2                !
 --------------------------------------------------------------------------------
 Trust Radius=3.00D-01 FncErr=1.00D-07 GrdErr=1.00D-06
 Number of steps in this run=    281 maximum allowed number of steps=    288.
 GradGradGradGradGradGradGradGradGradGradGradGradGradGradGradGradGradGrad

                          Input orientation:                          
 ---------------------------------------------------------------------
 Center     Atomic      Atomic             Coordinates (Angstroms)
 Number     Number       Type             X           Y           Z
 ---------------------------------------------------------------------
      1          6           0        9.931950    8.588680    7.959980
      2          6           0        9.702580    7.719770    9.166870
      3          6           0       10.510300    8.982730    9.290680
      4          1           0       11.591300    8.913570    9.393200
      5          1           0       10.050600    9.817060    9.817150
      6          1           0        8.697880    7.728580    9.589440
      7          1           0       10.215300    6.760660    9.194730
      8          1           0       10.631000    8.211870    7.207800
      9          7           0        6.656930    5.266740    5.806940
     10          6           0        7.753730    4.593890    5.124880
     11          6           0        8.353400    3.469060    5.971270
     12          7           0        7.276840    2.600210    6.431920
     13          6           0        5.630740    4.369500    6.334090
     14          6           0        6.294510    3.321190    7.237650
     15          1           0        7.617350    1.758480    6.910680
     16          1           0        8.515780    5.335010    4.861930
     17          1           0        7.357400    4.166570    4.185230
     18          1           0        5.096830    3.859280    5.512240
     19          1           0        4.890270    4.938580    6.908880
     20          1           0        6.799300    3.895670    8.051740
     21          1           0        9.058290    2.880150    5.361970
     22          1           0        8.921150    3.931830    6.811350
     23          8           0        5.497550   11.597400    6.664870
     24          8           0        7.120060   13.772400    6.674780
     25          8           0        9.129830   13.401100    7.686060
     26          7           0        8.821740    9.346310    7.428730
     27          6           0        7.768270    7.311430    6.612090
     28          6           0        7.715370    8.691920    6.843560
     29          6           0        6.561210    9.454090    6.535050
     30          6           0        8.869750   10.700400    7.473480
     31          6           0        7.823560   11.507400    7.110240
     32          6           0        6.537510   10.918200    6.756590
     33          6           0        5.427830    8.775150    6.007640
     34          6           0        6.659480    6.624940    6.100410
     35          6           0        5.511770    7.405130    5.843500
     36          6           0        8.085350   12.954500    7.201350
     37          1           0        9.799020   11.133400    7.838770
     38          6           0        4.177260    9.472970    5.561560
     39          1           0        7.481340   14.682300    6.792080
     40          9           0        4.434240    6.745000    5.297170
     41          1           0        3.702290    9.999040    6.398490
     42          1           0        4.418350   10.264100    4.840200
     43          1           0        3.484750    8.759720    5.106560
     44          6           0        5.299820    2.358690    7.860840
     45          1           0        4.810030    1.750590    7.089010
     46          1           0        4.539770    2.893220    8.445910
     47          1           0        5.810600    1.671790    8.548470
     48          1           0        8.659890    6.743640    6.870310
 ---------------------------------------------------------------------
                    Distance matrix (angstroms):
                    1          2          3          4          5
     1  C    0.000000
     2  C    1.504725   0.000000
     3  C    1.503505   1.504263   0.000000
     4  H    2.216555   2.245807   1.088051   0.000000
     5  H    2.229815   2.223198   1.088394   1.835697   0.000000
     6  H    2.217620   1.089984   2.224189   3.132825   2.498690
     7  H    2.224085   1.087911   2.243619   2.562770   3.123478
     8  H    1.093815   2.223079   2.224226   2.488078   3.118045
     9  N    5.137764   5.155819   6.386978   7.106943   6.950122
    10  C    5.361043   5.468713   6.649397   7.183671   7.387457
    11  C    5.714656   5.486409   6.787581   7.199742   7.613697
    12  N    6.726541   6.290792   7.704825   8.200138   8.440169
    13  C    6.240625   5.985719   7.337126   8.095369   7.832163
    14  C    6.441986   5.889341   7.351248   7.998568   7.934630
    15  H    7.287663   6.706382   8.137773   8.552806   8.905559
    16  H    4.710607   5.062419   6.074356   6.541966   6.855556
    17  H    6.358624   6.553002   7.694270   8.220880   8.420207
    18  H    7.192847   7.033679   8.356555   9.098672   8.863816
    19  H    6.312415   5.999322   7.322080   8.177787   7.673761
    20  H    5.643249   4.929127   6.417529   7.066972   6.982155
    21  H    6.332476   6.189854   7.401660   7.685643   8.303856
    22  H    4.901767   4.528531   5.846714   6.213967   6.704209
    23  O    5.513040   6.243260   6.233702   7.195868   5.816936
    24  O    6.035679   7.036636   6.424764   7.140730   5.840143
    25  O    4.886493   5.899013   4.899234   5.395469   4.270211
    26  N    1.445267   2.538236   2.539741   3.422991   2.726949
    27  C    2.851260   3.230356   4.181724   4.991691   4.664721
    28  C    2.484005   3.208091   3.726205   4.644634   3.944804
    29  C    3.760485   4.450005   4.838490   5.810593   4.804141
    30  C    2.413361   3.527794   2.990654   3.779540   2.769022
    31  C    3.699499   4.701764   4.283322   5.112311   3.891570
    32  C    4.289176   5.104613   5.094185   6.042437   4.787623
    33  C    4.912586   5.419230   6.054167   7.033459   6.080127
    34  C    4.245390   4.456713   5.528636   6.356347   5.958480
    35  C    5.041653   5.357861   6.273530   7.199753   6.496790
    36  C    4.800608   5.820747   5.101043   5.781436   4.533006
    37  H    2.551071   3.664153   2.690603   3.249025   2.389567
    38  C    6.296892   6.826502   7.365736   8.364352   7.261168
    39  H    6.670958   7.684423   6.921178   7.545584   6.278750
    40  F    6.380794   6.609097   7.607500   8.526644   7.836534
    41  H    6.575411   6.990170   7.466368   8.507821   7.212586
    42  H    6.552850   7.288126   7.652486   8.602613   7.529417
    43  H    7.052492   7.498601   8.180156   9.171429   8.149725
    44  C    7.763970   7.059121   8.548184   9.213973   9.056729
    45  H    8.587906   7.992850   9.468066  10.129324   9.998713
    46  H    7.858117   7.104222   8.569889   9.320196   8.954837
    47  H    8.073117   7.218586   8.722838   9.304485   9.269982
    48  H    2.491925   2.704481   3.780970   4.434719   4.479269
                    6          7          8          9         10
     6  H    0.000000
     7  H    1.842615   0.000000
     8  H    3.105275   2.495337   0.000000
     9  N    4.953124   5.135262   5.140956   0.000000
    10  C    5.536244   5.226653   5.070209   1.456332   0.000000
    11  C    5.599405   4.969104   5.404694   2.477230   1.530105
    12  N    6.187848   5.794567   6.583548   2.808072   2.431160
    13  C    5.593574   5.909238   6.366300   1.461504   2.453493
    14  C    5.543662   5.570701   6.536420   2.442016   2.865813
    15  H    6.632149   6.081779   7.128577   3.801123   3.353689
    16  H    5.302046   4.867649   4.272421   2.086391   1.095044
    17  H    6.609863   6.323922   6.018043   2.081100   1.105722
    18  H    6.675523   6.940999   7.242030   2.121722   2.783670
    19  H    5.428388   6.074622   6.615116   2.107854   3.391293
    20  H    4.545363   4.602570   5.832987   2.634242   3.156732
    21  H    6.442722   5.575579   5.857281   3.414724   2.166793
    22  H    4.709877   3.918878   4.625960   2.813808   2.155313
    23  O    5.810593   7.214666   6.173240   6.492878   7.517384
    24  O    6.892933   8.068157   6.597750   8.562353   9.329993
    25  O    5.998910   6.895634   5.423131   8.707132   9.274710
    26  N    2.702047   3.427295   2.146901   4.894844   5.388308
    27  C    3.146872   3.600185   3.059556   2.462539   3.097907
    28  C    3.071353   3.937946   2.977250   3.731854   4.444005
    29  C    4.107559   5.261258   4.308003   4.251259   5.199253
    30  C    3.652197   4.504970   3.060289   6.099065   6.637084
    31  C    4.603298   5.709383   4.330330   6.481161   7.193271
    32  C    4.781832   6.062657   4.927928   5.731937   6.643686
    33  C    4.961636   6.093897   5.369418   3.722890   4.865389
    34  C    4.188845   4.715622   4.417876   1.389546   2.504837
    35  C    4.928284   5.811134   5.358979   2.425993   3.666861
    36  C    5.778270   6.846452   5.382649   7.942696   8.620992
    37  H    3.983736   4.597039   3.102523   6.958359   7.369776
    38  C    6.301009   7.550793   6.778734   4.888900   6.065249
    39  H    7.593380   8.717778   7.208304   9.502785  10.228869
    40  F    6.129408   6.972222   6.648462   2.717622   3.959289
    41  H    6.347682   7.792648   7.201110   5.610213   6.874001
    42  H    6.877392   8.052369   6.958031   5.560525   6.584610
    43  H    6.952423   8.124634   7.468885   4.770133   5.964785
    44  C    6.585635   6.731905   7.944033   3.810119   4.301543
    45  H    7.556712   7.664972   8.697468   4.173494   4.539552
    46  H    6.479062   6.908651   8.180711   4.132811   4.924536
    47  H    6.790045   6.761334   8.234458   4.599557   4.902590
    48  H    2.892269   2.796877   2.480902   2.706259   2.913602
                   11         12         13         14         15
    11  C    0.000000
    12  N    1.458108   0.000000
    13  C    2.890555   2.418595   0.000000
    14  C    2.421696   1.460817   1.534915   0.000000
    15  H    2.085748   1.026483   3.331141   2.073373   0.000000
    16  H    2.176872   3.388063   3.379781   3.825383   4.218545
    17  H    2.160665   2.739998   2.764079   3.340909   3.646169
    18  H    3.311832   2.680207   1.104908   2.168183   3.566794
    19  H    3.877096   3.375082   1.096600   2.167009   4.189273
    20  H    2.631649   2.128398   2.130814   1.116952   2.557109
    21  H    1.102239   2.096837   3.861513   3.369150   2.394359
    22  H    1.114554   2.149636   3.353525   2.730174   2.536378
    23  O    8.643314   9.174397   7.236691   8.334199  10.067687
    24  O   10.400715  11.175929   9.526210  10.498864  12.026522
    25  O   10.108846  11.030216   9.779635  10.480682  11.766028
    26  N    6.073352   6.992154   6.012433   6.536473   7.700266
    27  C    3.939141   4.740207   3.647091   4.299455   5.563020
    28  C    5.333502   6.121330   4.825822   5.569461   6.934458
    29  C    6.272988   6.891911   5.172931   6.178773   7.776821
    30  C    7.403751   8.320774   7.202062   7.819221   9.046722
    31  C    8.135901   8.949696   7.507362   8.328761   9.753142
    32  C    7.707391   8.357091   6.624667   7.616103   9.224439
    33  C    6.059280   6.459778   4.422386   5.657715   7.405615
    34  C    3.584079   4.085276   2.489964   3.513016   5.025583
    35  C    4.856319   5.152569   3.077317   4.385761   6.120212
    36  C    9.568622  10.414271   8.971035   9.798423  11.209566
    37  H    8.019943   9.008660   8.086344   8.583330   9.670065
    38  C    7.324953   7.589450   5.362351   6.718365   8.553812
    39  H   11.277011  12.089187  10.487532  11.431619  12.925080
    40  F    5.152282   5.152409   2.854788   4.352992   6.131964
    41  H    8.028448   8.217129   5.951032   7.212314   9.137662
    42  H    7.933253   8.333052   6.200638   7.581012   9.320196
    43  H    7.241724   7.353645   5.038466   6.481813   8.327700
    44  C    3.758690   2.451276   2.546337   1.517953   2.575656
    45  H    4.093648   2.690497   2.846429   2.166232   2.812989
    46  H    4.582489   3.410801   2.798107   2.173054   3.621611
    47  H    4.042026   2.737080   3.494777   2.161698   2.440126
    48  H    3.409558   4.390105   3.885849   4.176497   5.093166
                   16         17         18         19         20
    16  H    0.000000
    17  H    1.779050   0.000000
    18  H    3.780199   2.639235   0.000000
    19  H    4.182282   3.755130   1.777121   0.000000
    20  H    3.897806   3.915962   3.057579   2.457272   0.000000
    21  H    2.563337   2.435697   4.083435   4.899230   3.656389
    22  H    2.435873   3.065440   4.039601   4.155845   2.458073
    23  O    7.181771   8.051391   7.833750   6.690905   7.933133
    24  O    8.742083   9.926034  10.184052   9.113898   9.977410
    25  O    8.568231  10.033637  10.584749   9.496953   9.793788
    26  N    4.772065   6.284448   6.903288   5.929147   5.847040
    27  C    2.743732   3.993571   4.501511   3.741843   3.831307
    28  C    3.979492   5.260575   5.655402   4.698193   5.030199
    29  C    4.856593   5.840671   5.873027   4.829246   5.766547
    30  C    5.977700   7.469319   8.054956   7.025212   7.136210
    31  C    6.605487   7.915856   8.275409   7.196814   7.737827
    32  C    6.218947   7.271081   7.311109   6.204228   7.145759
    33  C    4.762631   5.318217   4.951844   3.977496   5.465217
    34  C    2.577519   3.193523   3.230587   2.574400   3.357998
    35  C    3.777956   4.079765   3.585382   2.757746   4.341701
    36  C    7.982154   9.319582   9.721490   8.634179   9.189096
    37  H    6.643012   8.236904   8.968621   7.958412   7.837628
    38  C    6.036137   6.337622   5.688722   4.783759   6.646982
    39  H    9.600384  10.834741  11.156238  10.083024  10.881328
    40  F    4.340101   4.053341   2.968613   2.463478   4.615176
    41  H    6.876327   7.230218   6.358210   5.223031   7.041011
    42  H    6.409784   6.800505   6.475623   5.732653   7.519296
    43  H    6.090956   6.078100   5.174716   4.452522   6.581741
    44  C    5.309834   4.583904   2.794440   2.780250   2.155734
    45  H    5.616096   4.556094   2.648590   3.194083   3.079840
    46  H    5.883528   5.264395   3.138472   2.582404   2.503148
    47  H    5.858989   5.258743   3.809629   3.769241   2.483930
    48  H    2.457356   3.943022   4.781138   4.179685   3.601181
                   21         22         23         24         25
    21  H    0.000000
    22  H    1.795979   0.000000
    23  O    9.506149   8.396634   0.000000
    24  O   11.140975  10.004968   2.713533   0.000000
    25  O   10.774827   9.511874   4.182059   2.280291   0.000000
    26  N    6.792546   5.450471   4.086701   4.801503   4.074612
    27  C    4.781547   3.576385   4.850618   6.493708   6.331772
    28  C    6.146154   4.910540   3.659572   5.118023   4.988675
    29  C    7.129391   6.011740   2.396248   4.356563   4.847837
    30  C    8.102489   6.801073   3.581926   3.624434   2.721509
    31  C    8.888782   7.660503   2.369974   2.411382   2.371499
    32  C    8.538709   7.382012   1.245489   2.914192   3.707941
    33  C    6.953284   6.025528   2.898604   5.318010   6.158028
    34  C    4.508108   3.587956   5.137514   7.185278   7.384664
    35  C    5.769326   4.962300   4.271999   6.619649   7.241343
    36  C   10.287004   9.069688   2.970899   1.370409   1.235044
    37  H    8.648662   7.327268   4.482854   3.936498   2.369303
    38  C    8.205459   7.400723   2.733800   5.327704   6.668707
    39  H   11.992611  10.846475   3.669906   0.986002   2.271166
    40  F    6.026865   5.508087   5.152380   7.648254   8.488759
    41  H    8.968818   8.013613   2.418403   5.098601   6.533761
    42  H    8.736361   8.016126   2.504353   4.793025   6.335435
    43  H    8.105487   7.467883   3.812102   6.387625   7.750042
    44  C    4.543387   4.085368   9.317897  11.618640  11.689069
    45  H    4.722953   4.662211   9.879891  12.248744  12.439917
    46  H    5.470638   4.790301   8.936006  11.320396  11.491804
    47  H    4.707590   4.219110  10.107605  12.314632  12.220383
    48  H    4.166577   2.824537   5.796688   7.198109   6.723694
                   26         27         28         29         30
    26  N    0.000000
    27  C    2.432578   0.000000
    28  C    1.412340   1.400760   0.000000
    29  C    2.433162   2.460472   1.417098   0.000000
    30  C    1.355680   3.666111   2.400705   2.786269   0.000000
    31  C    2.401689   4.225799   2.830150   2.477994   1.370294
    32  C    2.853124   3.813717   2.520167   1.480966   2.449635
    33  C    3.723486   2.825862   2.436910   1.422558   4.207385
    34  C    3.720975   1.400893   2.437126   2.864028   4.835286
    35  C    4.151751   2.385645   2.740767   2.403706   4.979123
    36  C    3.689581   5.682606   4.293540   3.875542   2.402146
    37  H    2.077715   4.498460   3.360486   3.873394   1.088333
    38  C    5.007351   4.321021   3.843408   2.575123   5.213587
    39  H    5.538482   7.378648   5.995171   5.314780   4.271711
    40  F    5.528157   3.628445   4.116750   3.659989   6.328923
    41  H    5.262720   4.878634   4.243991   2.913596   5.324486
    42  H    5.189670   4.804146   4.165998   2.849646   5.190326
    43  H    5.849788   4.765785   4.573829   3.462274   6.194092
    44  C    7.836930   5.672941   6.854162   7.327587   9.081772
    45  H    8.596755   6.316770   7.528832   7.919433   9.835052
    46  H    7.811037   5.771195   6.802711   7.126193   8.980334
    47  H    8.319798   6.275952   7.471084   8.073504   9.593216
    48  H    2.666818   1.088140   2.165324   3.444328   4.007968
                   31         32         33         34         35
    31  C    0.000000
    32  C    1.458132   0.000000
    33  C    3.797425   2.526852   0.000000
    34  C    5.119888   4.344828   2.479712   0.000000
    35  C    4.876230   3.771941   1.382368   1.411360   0.000000
    36  C    1.473409   2.596178   5.094539   6.580920   6.265986
    37  H    2.138475   3.443090   5.293551   5.762362   6.021762
    38  C    4.453405   3.014559   1.499955   3.816156   2.477170
    39  H    3.209101   3.880789   6.302910   8.128648   7.598435
    40  F    6.120063   4.895840   2.369282   2.368819   1.376706
    41  H    4.445965   3.001927   2.151316   4.496485   3.211012
    42  H    4.277187   2.931081   2.144513   4.455814   3.221162
    43  H    5.512690   4.086683   2.141902   3.952712   2.546921
    44  C    9.520061   8.718742   6.679947   4.811307   5.438855
    45  H   10.211619   9.334868   7.134107   5.306325   5.832457
    46  H    9.315116   8.440680   6.428912   4.890836   5.298552
    47  H   10.141979   9.446445   7.553811   5.589928   6.346444
    48  H    4.842564   4.684483   3.913751   2.146736   3.376769
                   36         37         38         39         40
    36  C    0.000000
    37  H    2.580576   0.000000
    38  C    5.484809   6.288632   0.000000
    39  H    1.875533   4.365993   6.290329   0.000000
    40  F    7.450798   7.382320   2.752773   8.632514   0.000000
    41  H    5.347013   6.366419   1.096721   6.030676   3.512468
    42  H    5.124468   6.220829   1.097439   5.719461   3.548681
    43  H    6.568854   7.278003   1.093307   7.341026   2.235388
    44  C   10.975668   9.860975   7.560411  12.560758   5.153770
    45  H   11.673386  10.653135   7.897383  13.208073   5.319402
    46  H   10.740085   9.794330   7.193330  12.262561   4.976134
    47  H   11.588303  10.292387   8.511630  13.234412   6.180840
    48  H    6.246156   4.637405   5.408885   8.026047   4.508979
                   41         42         43         44         45
    41  H    0.000000
    42  H    1.735300   0.000000
    43  H    1.803419   1.790451   0.000000
    44  C    7.941380   8.508629   7.200953   0.000000
    45  H    8.351098   8.814216   7.403673   1.097908   0.000000
    46  H    7.442176   8.206446   6.832287   1.098046   1.794386
    47  H    8.854969   9.461364   8.215539   1.097981   1.771263
    48  H    5.949625   5.874151   5.827304   5.612398   6.308708
                   46         47         48
    46  H    0.000000
    47  H    1.765621   0.000000
    48  H    5.855223   6.054613   0.000000
 Stoichiometry    C19H22FN3O3
 Framework group  C1[X(C19H22FN3O3)]
 Deg. of freedom   138
 Full point group                 C1      NOp   1
 Largest Abelian subgroup         C1      NOp   1
 Largest concise Abelian subgroup C1      NOp   1
                         Standard orientation:                         
 ---------------------------------------------------------------------
 Center     Atomic      Atomic             Coordinates (Angstroms)
 Number     Number       Type             X           Y           Z
 ---------------------------------------------------------------------
      1          6           0       -1.144614    2.798792   -0.185967
      2          6           0       -0.360392    3.275972    1.006298
      3          6           0       -1.742209    3.812363    0.750025
      4          1           0       -1.856161    4.824095    0.366269
      5          1           0       -2.535530    3.481376    1.417625
      6          1           0       -0.245747    2.569405    1.828298
      7          1           0        0.498104    3.915947    0.814030
      8          1           0       -0.819424    3.160214   -1.165792
      9          7           0        2.835561   -0.417416   -0.645138
     10          6           0        3.381993    0.379651   -1.734634
     11          6           0        4.317121    1.480148   -1.229003
     12          7           0        5.302771    0.886749   -0.333206
     13          6           0        3.835186   -0.932424    0.288409
     14          6           0        4.679775    0.235413    0.816413
     15          1           0        6.033527    1.547904   -0.045911
     16          1           0        2.554737    0.803935   -2.313212
     17          1           0        3.948603   -0.298202   -2.399533
     18          1           0        4.494884   -1.665798   -0.209369
     19          1           0        3.343276   -1.442130    1.125521
     20          1           0        3.962242    0.927985    1.319478
     21          1           0        4.837269    1.947144   -2.081232
     22          1           0        3.697050    2.259946   -0.729346
     23          8           0       -3.278943   -2.226518    0.578565
     24          8           0       -5.677674   -1.186091   -0.147288
     25          8           0       -5.723482    1.093599   -0.121917
     26          7           0       -1.664948    1.450453   -0.180402
     27          6           0        0.576365    0.538700   -0.430723
     28          6           0       -0.792887    0.339954   -0.212142
     29          6           0       -1.330355   -0.951846    0.012683
     30          6           0       -3.007870    1.265026   -0.173654
     31          6           0       -3.601840    0.036777   -0.045944
     32          6           0       -2.785611   -1.144352    0.208725
     33          6           0       -0.434947   -2.056779    0.044915
     34          6           0        1.473872   -0.536341   -0.395141
     35          6           0        0.913093   -1.803451   -0.127005
     36          6           0       -5.074494    0.043222   -0.092640
     37          1           0       -3.614499    2.164551   -0.259225
     38          6           0       -0.881563   -3.481400    0.189328
     39          1           0       -6.640403   -0.982403   -0.209457
     40          9           0        1.782749   -2.870655   -0.136540
     41          1           0       -1.396831   -3.635540    1.145119
     42          1           0       -1.634130   -3.724361   -0.571583
     43          1           0       -0.029334   -4.159384    0.092570
     44          6           0        5.730029   -0.198386    1.822875
     45          1           0        6.474479   -0.853322    1.351437
     46          1           0        5.274310   -0.714642    2.678156
     47          1           0        6.262859    0.675103    2.221211
     48          1           0        0.969161    1.541405   -0.586746
 ---------------------------------------------------------------------
 Rotational constants (GHZ):      0.3684089      0.1169160      0.0949416
 Standard basis: 3-21G (6D, 7F)
 There are   278 symmetry adapted cartesian basis functions of A   symmetry.
 There are   278 symmetry adapted basis functions of A   symmetry.
   278 basis functions,   456 primitive gaussians,   278 cartesian basis functions
    95 alpha electrons       95 beta electrons
       nuclear repulsion energy      2387.6553470140 Hartrees.
 NAtoms=   48 NActive=   48 NUniq=   48 SFac= 1.00D+00 NAtFMM=   60 NAOKFM=F Big=F
 Integral buffers will be    131072 words long.
 Raffenetti 2 integral format.
 Two-electron integral symmetry is turned on.
 One-electron integrals computed using PRISM.
 PrsmSu:  requested number of processors reduced to:   9 ShMem   1 Linda.
 NBasis=   278 RedAO= T EigKep=  1.14D-03  NBF=   278
 NBsUse=   278 1.00D-06 EigRej= -1.00D+00 NBFU=   278
 ExpMin= 1.83D-01 ExpMax= 4.14D+02 ExpMxC= 4.14D+02 IAcc=1 IRadAn=         1 AccDes= 0.00D+00
 Harris functional with IExCor=  402 and IRadAn=       1 diagonalized for initial guess.
 HarFok:  IExCor=  402 AccDes= 0.00D+00 IRadAn=         1 IDoV= 1 UseB2=F ITyADJ=14
 ICtDFT=  3500011 ScaDFX=  1.000000  1.000000  1.000000  1.000000
 FoFCou: FMM=F IPFlag=           0 FMFlag=      100000 FMFlg1=           0
         NFxFlg=           0 DoJE=T BraDBF=F KetDBF=T FulRan=T
         wScrn=  0.000000 ICntrl=     500 IOpCl=  0 I1Cent=   200000004 NGrid=           0
         NMat0=    1 NMatS0=      1 NMatT0=    0 NMatD0=    1 NMtDS0=    0 NMtDT0=    0
 Petite list used in FoFCou.
 Requested convergence on RMS density matrix=1.00D-08 within 128 cycles.
 Requested convergence on MAX density matrix=1.00D-06.
 Requested convergence on             energy=1.00D-06.
 No special actions if energy rises.
 Integral accuracy reduced to 1.0D-05 until final iterations.
 Initial convergence to 1.0D-05 achieved.  Increase integral accuracy.
 SCF Done:  E(RB3LYP) =  -1220.27770090     A.U. after   17 cycles
            NFock= 17  Conv=0.63D-08     -V/T= 2.0081

 **********************************************************************

            Population analysis using the SCF density.

 **********************************************************************

 Orbital symmetries:
       Occupied  (A) (A) (A) (A) (A) (A) (A) (A) (A) (A) (A) (A)
                 (A) (A) (A) (A) (A) (A) (A) (A) (A) (A) (A) (A)
                 (A) (A) (A) (A) (A) (A) (A) (A) (A) (A) (A) (A)
                 (A) (A) (A) (A) (A) (A) (A) (A) (A) (A) (A) (A)
                 (A) (A) (A) (A) (A) (A) (A) (A) (A) (A) (A) (A)
                 (A) (A) (A) (A) (A) (A) (A) (A) (A) (A) (A) (A)
                 (A) (A) (A) (A) (A) (A) (A) (A) (A) (A) (A) (A)
                 (A) (A) (A) (A) (A) (A) (A) (A) (A) (A) (A)
       Virtual   (A) (A) (A) (A) (A) (A) (A) (A) (A) (A) (A) (A)
                 (A) (A) (A) (A) (A) (A) (A) (A) (A) (A) (A) (A)
                 (A) (A) (A) (A) (A) (A) (A) (A) (A) (A) (A) (A)
                 (A) (A) (A) (A) (A) (A) (A) (A) (A) (A) (A) (A)
                 (A) (A) (A) (A) (A) (A) (A) (A) (A) (A) (A) (A)
                 (A) (A) (A) (A) (A) (A) (A) (A) (A) (A) (A) (A)
                 (A) (A) (A) (A) (A) (A) (A) (A) (A) (A) (A) (A)
                 (A) (A) (A) (A) (A) (A) (A) (A) (A) (A) (A) (A)
                 (A) (A) (A) (A) (A) (A) (A) (A) (A) (A) (A) (A)
                 (A) (A) (A) (A) (A) (A) (A) (A) (A) (A) (A) (A)
                 (A) (A) (A) (A) (A) (A) (A) (A) (A) (A) (A) (A)
                 (A) (A) (A) (A) (A) (A) (A) (A) (A) (A) (A) (A)
                 (A) (A) (A) (A) (A) (A) (A) (A) (A) (A) (A) (A)
                 (A) (A) (A) (A) (A) (A) (A) (A) (A) (A) (A) (A)
                 (A) (A) (A) (A) (A) (A) (A) (A) (A) (A) (A) (A)
                 (A) (A) (A)
 The electronic state is 1-A.
 Alpha  occ. eigenvalues --  -24.56579 -19.06534 -19.00948 -18.98995 -14.33550
 Alpha  occ. eigenvalues --  -14.26985 -14.23856 -10.24678 -10.20326 -10.19761
 Alpha  occ. eigenvalues --  -10.19269 -10.19221 -10.19104 -10.18549 -10.16209
 Alpha  occ. eigenvalues --  -10.15673 -10.15641 -10.15605 -10.15409 -10.15369
 Alpha  occ. eigenvalues --  -10.14873 -10.14147 -10.13855 -10.13249 -10.12058
 Alpha  occ. eigenvalues --  -10.10037  -1.20146  -1.09088  -1.01736  -1.00836
 Alpha  occ. eigenvalues --   -1.00042  -0.96454  -0.91246  -0.89882  -0.86390
 Alpha  occ. eigenvalues --   -0.80878  -0.79296  -0.78077  -0.77245  -0.72091
 Alpha  occ. eigenvalues --   -0.70149  -0.69075  -0.67500  -0.65520  -0.64489
 Alpha  occ. eigenvalues --   -0.62943  -0.61912  -0.60201  -0.58229  -0.57677
 Alpha  occ. eigenvalues --   -0.56092  -0.54729  -0.53567  -0.52758  -0.51683
 Alpha  occ. eigenvalues --   -0.50066  -0.48242  -0.48006  -0.47563  -0.47116
 Alpha  occ. eigenvalues --   -0.46586  -0.45975  -0.45167  -0.44549  -0.44133
 Alpha  occ. eigenvalues --   -0.43697  -0.42764  -0.42620  -0.41647  -0.41188
 Alpha  occ. eigenvalues --   -0.40147  -0.39574  -0.39522  -0.39392  -0.39002
 Alpha  occ. eigenvalues --   -0.38614  -0.37911  -0.36784  -0.36243  -0.36060
 Alpha  occ. eigenvalues --   -0.35403  -0.35284  -0.34805  -0.34592  -0.33688
 Alpha  occ. eigenvalues --   -0.33387  -0.32569  -0.28780  -0.27504  -0.25517
 Alpha  occ. eigenvalues --   -0.25232  -0.22017  -0.21458  -0.21075  -0.19413
 Alpha virt. eigenvalues --   -0.03682  -0.02967   0.01524   0.04406   0.08131
 Alpha virt. eigenvalues --    0.08961   0.10045   0.10130   0.11014   0.11586
 Alpha virt. eigenvalues --    0.12251   0.12356   0.13228   0.13904   0.14364
 Alpha virt. eigenvalues --    0.15291   0.15962   0.16238   0.16702   0.17203
 Alpha virt. eigenvalues --    0.17930   0.18196   0.18691   0.18930   0.19070
 Alpha virt. eigenvalues --    0.19336   0.20159   0.20419   0.21484   0.22103
 Alpha virt. eigenvalues --    0.22308   0.22828   0.23591   0.24684   0.24911
 Alpha virt. eigenvalues --    0.25428   0.26282   0.26877   0.27253   0.27749
 Alpha virt. eigenvalues --    0.28555   0.29028   0.29797   0.30762   0.32041
 Alpha virt. eigenvalues --    0.32490   0.33864   0.37620   0.39082   0.41124
 Alpha virt. eigenvalues --    0.42765   0.43978   0.47055   0.51033   0.54149
 Alpha virt. eigenvalues --    0.60111   0.61305   0.64548   0.64653   0.66023
 Alpha virt. eigenvalues --    0.66804   0.67489   0.68404   0.69261   0.69673
 Alpha virt. eigenvalues --    0.70410   0.71131   0.71187   0.71583   0.71755
 Alpha virt. eigenvalues --    0.72118   0.72788   0.73605   0.74135   0.74561
 Alpha virt. eigenvalues --    0.75098   0.75424   0.75794   0.75884   0.76760
 Alpha virt. eigenvalues --    0.77296   0.78176   0.78788   0.79677   0.81303
 Alpha virt. eigenvalues --    0.81575   0.83371   0.84063   0.85412   0.86203
 Alpha virt. eigenvalues --    0.86360   0.87542   0.88251   0.91072   0.91588
 Alpha virt. eigenvalues --    0.91692   0.92965   0.93345   0.94112   0.95715
 Alpha virt. eigenvalues --    0.96033   0.96647   0.98577   0.98850   0.99811
 Alpha virt. eigenvalues --    1.00975   1.01999   1.02475   1.03710   1.05096
 Alpha virt. eigenvalues --    1.06014   1.06405   1.06987   1.07496   1.08126
 Alpha virt. eigenvalues --    1.08681   1.09657   1.09886   1.09989   1.11301
 Alpha virt. eigenvalues --    1.12225   1.12638   1.14433   1.15184   1.17263
 Alpha virt. eigenvalues --    1.18467   1.20406   1.25210   1.29334   1.32414
 Alpha virt. eigenvalues --    1.33540   1.35692   1.36799   1.37492   1.40343
 Alpha virt. eigenvalues --    1.41557   1.42677   1.44677   1.44840   1.46978
 Alpha virt. eigenvalues --    1.48692   1.51226   1.53398   1.54118   1.57340
 Alpha virt. eigenvalues --    1.58012   1.59176   1.61638   1.62929   1.64268
 Alpha virt. eigenvalues --    1.65787   1.67655   1.69087   1.70375   1.72769
 Alpha virt. eigenvalues --    1.75303   1.77845   1.81423   1.84384   1.86746
 Alpha virt. eigenvalues --    1.87117   1.88131   1.91010   1.93979   1.95651
 Alpha virt. eigenvalues --    1.98096   1.98320   1.99863   2.00421   2.05459
 Alpha virt. eigenvalues --    2.07202   2.13552   2.16685   2.25092   2.44055
 Alpha virt. eigenvalues --    2.56538   2.70495   2.87475   2.98813   3.15341
 Alpha virt. eigenvalues --    3.42304   3.56836   4.03239
          Condensed to atoms (all electrons):
               1          2          3          4          5          6
     1  C    5.402361   0.110260   0.120006  -0.026610  -0.028037  -0.027907
     2  C    0.110260   5.520526   0.117055  -0.024392  -0.024105   0.378512
     3  C    0.120006   0.117055   5.518127   0.377969   0.377593  -0.025145
     4  H   -0.026610  -0.024392   0.377969   0.472212  -0.016493   0.001302
     5  H   -0.028037  -0.024105   0.377593  -0.016493   0.456398  -0.003523
     6  H   -0.027907   0.378512  -0.025145   0.001302  -0.003523   0.454230
     7  H   -0.026604   0.376206  -0.025385  -0.003186   0.001268  -0.016213
     8  H    0.381443  -0.036492  -0.027475  -0.002240   0.001428   0.001586
     9  N    0.000000  -0.000001   0.000000   0.000000   0.000000  -0.000001
    10  C   -0.000002   0.000000   0.000000   0.000000   0.000000   0.000000
    11  C    0.000000  -0.000001   0.000000   0.000000   0.000000   0.000000
    12  N    0.000000   0.000000   0.000000   0.000000   0.000000   0.000000
    13  C    0.000000   0.000000   0.000000   0.000000   0.000000   0.000000
    14  C    0.000000   0.000000   0.000000   0.000000   0.000000   0.000000
    15  H    0.000000   0.000000   0.000000   0.000000   0.000000   0.000000
    16  H   -0.000004  -0.000004   0.000000   0.000000   0.000000   0.000000
    17  H    0.000000   0.000000   0.000000   0.000000   0.000000   0.000000
    18  H    0.000000   0.000000   0.000000   0.000000   0.000000   0.000000
    19  H    0.000000   0.000000   0.000000   0.000000   0.000000   0.000000
    20  H    0.000000   0.000000   0.000000   0.000000   0.000000   0.000002
    21  H    0.000000   0.000000   0.000000   0.000000   0.000000   0.000000
    22  H   -0.000005  -0.000003   0.000000   0.000000   0.000000  -0.000001
    23  O    0.000000   0.000000   0.000000   0.000000   0.000000   0.000000
    24  O    0.000000   0.000000   0.000000   0.000000   0.000000   0.000000
    25  O    0.000004   0.000000  -0.000001   0.000000  -0.000003   0.000000
    26  N    0.265466  -0.040856  -0.032399   0.001143  -0.002490  -0.001316
    27  C   -0.002992  -0.002105   0.000556  -0.000002  -0.000019   0.000450
    28  C   -0.058517  -0.004153   0.003690  -0.000043  -0.000014   0.002279
    29  C    0.001628   0.000345  -0.000080   0.000000  -0.000004  -0.000088
    30  C   -0.065335   0.004200  -0.009806   0.000118   0.003576   0.000140
    31  C    0.002584  -0.000203   0.000621  -0.000004  -0.000066  -0.000006
    32  C    0.000041   0.000001  -0.000014   0.000000  -0.000003  -0.000002
    33  C   -0.000079   0.000000   0.000001   0.000000   0.000000   0.000001
    34  C    0.000136   0.000046  -0.000009   0.000000   0.000000  -0.000019
    35  C    0.000004  -0.000008   0.000000   0.000000   0.000000  -0.000001
    36  C   -0.000055   0.000001  -0.000005   0.000000   0.000008   0.000000
    37  H   -0.001292  -0.000155   0.001136   0.000022   0.000813   0.000022
    38  C    0.000000   0.000000   0.000000   0.000000   0.000000   0.000000
    39  H    0.000000   0.000000   0.000000   0.000000   0.000000   0.000000
    40  F    0.000000   0.000000   0.000000   0.000000   0.000000   0.000000
    41  H    0.000000   0.000000   0.000000   0.000000   0.000000   0.000000
    42  H    0.000000   0.000000   0.000000   0.000000   0.000000   0.000000
    43  H    0.000000   0.000000   0.000000   0.000000   0.000000   0.000000
    44  C    0.000000   0.000000   0.000000   0.000000   0.000000   0.000000
    45  H    0.000000   0.000000   0.000000   0.000000   0.000000   0.000000
    46  H    0.000000   0.000000   0.000000   0.000000   0.000000   0.000000
    47  H    0.000000   0.000000   0.000000   0.000000   0.000000   0.000000
    48  H    0.004548   0.000544  -0.000056   0.000002   0.000005  -0.000372
               7          8          9         10         11         12
     1  C   -0.026604   0.381443   0.000000  -0.000002   0.000000   0.000000
     2  C    0.376206  -0.036492  -0.000001   0.000000  -0.000001   0.000000
     3  C   -0.025385  -0.027475   0.000000   0.000000   0.000000   0.000000
     4  H   -0.003186  -0.002240   0.000000   0.000000   0.000000   0.000000
     5  H    0.001268   0.001428   0.000000   0.000000   0.000000   0.000000
     6  H   -0.016213   0.001586  -0.000001   0.000000   0.000000   0.000000
     7  H    0.482556  -0.001965   0.000000  -0.000001  -0.000001   0.000000
     8  H   -0.001965   0.493250   0.000000  -0.000002   0.000000   0.000000
     9  N    0.000000   0.000000   7.239078   0.285619  -0.060846  -0.004062
    10  C   -0.000001  -0.000002   0.285619   5.210583   0.244560  -0.060375
    11  C   -0.000001   0.000000  -0.060846   0.244560   5.282866   0.295297
    12  N    0.000000   0.000000  -0.004062  -0.060375   0.295297   6.989063
    13  C    0.000000   0.000000   0.277351  -0.071665  -0.003450  -0.067210
    14  C    0.000000   0.000000  -0.059924  -0.011210  -0.083143   0.268815
    15  H    0.000000   0.000000  -0.000214   0.004666  -0.040956   0.327923
    16  H    0.000000   0.000014  -0.030007   0.361483  -0.037423   0.002195
    17  H    0.000000   0.000000  -0.050230   0.355812  -0.062496   0.002843
    18  H    0.000000   0.000000  -0.041747  -0.000887  -0.000944   0.003094
    19  H    0.000000   0.000000  -0.026545   0.003159  -0.000073   0.002542
    20  H    0.000005   0.000000   0.001527   0.000007  -0.006612  -0.054909
    21  H    0.000000   0.000000   0.002585  -0.029872   0.359677  -0.032076
    22  H    0.000068   0.000000   0.000712  -0.061689   0.321355  -0.051446
    23  O    0.000000   0.000000   0.000000   0.000000   0.000000   0.000000
    24  O    0.000000   0.000000   0.000000   0.000000   0.000000   0.000000
    25  O    0.000000   0.000000   0.000000   0.000000   0.000000   0.000000
    26  N    0.001232  -0.037435  -0.000004   0.000000   0.000000   0.000000
    27  C   -0.000171   0.000636  -0.065415  -0.002053   0.000226   0.000019
    28  C    0.000065   0.000966   0.004870   0.000075  -0.000006   0.000000
    29  C   -0.000002  -0.000058  -0.000323   0.000004   0.000000   0.000000
    30  C   -0.000028   0.000593   0.000000   0.000000   0.000000   0.000000
    31  C    0.000001  -0.000060   0.000000   0.000000   0.000000   0.000000
    32  C    0.000000   0.000008   0.000000   0.000000   0.000000   0.000000
    33  C    0.000000  -0.000001   0.004664  -0.000060   0.000002   0.000000
    34  C    0.000001  -0.000024   0.314889  -0.059127   0.001127  -0.000079
    35  C    0.000000   0.000001  -0.089083   0.000498  -0.000170  -0.000007
    36  C    0.000000   0.000001   0.000000   0.000000   0.000000   0.000000
    37  H    0.000001   0.000300   0.000000   0.000000   0.000000   0.000000
    38  C    0.000000   0.000000  -0.000017   0.000001   0.000000   0.000000
    39  H    0.000000   0.000000   0.000000   0.000000   0.000000   0.000000
    40  F    0.000000   0.000000  -0.003545  -0.000044   0.000000   0.000000
    41  H    0.000000   0.000000   0.000000   0.000000   0.000000   0.000000
    42  H    0.000000   0.000000   0.000000   0.000000   0.000000   0.000000
    43  H    0.000000   0.000000   0.000000   0.000000   0.000000   0.000000
    44  C    0.000000   0.000000   0.002796   0.000091   0.004561  -0.051859
    45  H    0.000000   0.000000  -0.000020  -0.000014  -0.000017   0.003037
    46  H    0.000000   0.000000   0.000003   0.000008  -0.000122   0.002438
    47  H    0.000000   0.000000  -0.000045   0.000001  -0.000043  -0.001161
    48  H    0.000683   0.000230  -0.005397   0.000785  -0.000131  -0.000025
              13         14         15         16         17         18
     1  C    0.000000   0.000000   0.000000  -0.000004   0.000000   0.000000
     2  C    0.000000   0.000000   0.000000  -0.000004   0.000000   0.000000
     3  C    0.000000   0.000000   0.000000   0.000000   0.000000   0.000000
     4  H    0.000000   0.000000   0.000000   0.000000   0.000000   0.000000
     5  H    0.000000   0.000000   0.000000   0.000000   0.000000   0.000000
     6  H    0.000000   0.000000   0.000000   0.000000   0.000000   0.000000
     7  H    0.000000   0.000000   0.000000   0.000000   0.000000   0.000000
     8  H    0.000000   0.000000   0.000000   0.000014   0.000000   0.000000
     9  N    0.277351  -0.059924  -0.000214  -0.030007  -0.050230  -0.041747
    10  C   -0.071665  -0.011210   0.004666   0.361483   0.355812  -0.000887
    11  C   -0.003450  -0.083143  -0.040956  -0.037423  -0.062496  -0.000944
    12  N   -0.067210   0.268815   0.327923   0.002195   0.002843   0.003094
    13  C    5.278837   0.216629   0.005366   0.003495  -0.003221   0.345487
    14  C    0.216629   5.393671  -0.047599  -0.000050  -0.000448  -0.060907
    15  H    0.005366  -0.047599   0.485937  -0.000097  -0.000184  -0.000219
    16  H    0.003495  -0.000050  -0.000097   0.522107  -0.023147   0.000009
    17  H   -0.003221  -0.000448  -0.000184  -0.023147   0.553585   0.006576
    18  H    0.345487  -0.060907  -0.000219   0.000009   0.006576   0.557690
    19  H    0.356351  -0.038296  -0.000106  -0.000061   0.000038  -0.023123
    20  H   -0.069337   0.332359  -0.001090   0.000100   0.000282   0.005574
    21  H   -0.000181   0.004733  -0.004195  -0.000762  -0.000389   0.000053
    22  H   -0.000567  -0.007586  -0.001657   0.000740   0.005192   0.000212
    23  O    0.000000   0.000000   0.000000   0.000000   0.000000   0.000000
    24  O    0.000000   0.000000   0.000000   0.000000   0.000000   0.000000
    25  O    0.000000   0.000000   0.000000   0.000000   0.000000   0.000000
    26  N    0.000000   0.000000   0.000000  -0.000001   0.000000   0.000000
    27  C    0.001942   0.000249   0.000001   0.002601  -0.000046  -0.000151
    28  C   -0.000073  -0.000002   0.000000  -0.000114   0.000005   0.000002
    29  C   -0.000016  -0.000001   0.000000  -0.000003   0.000000   0.000000
    30  C    0.000000   0.000000   0.000000   0.000000   0.000000   0.000000
    31  C    0.000000   0.000000   0.000000   0.000000   0.000000   0.000000
    32  C    0.000000   0.000000   0.000000   0.000000   0.000000   0.000000
    33  C    0.000459   0.000013   0.000000  -0.000012  -0.000004  -0.000016
    34  C   -0.065227   0.001552  -0.000001  -0.003648   0.002524   0.001626
    35  C   -0.001955   0.000352   0.000000   0.000147   0.000423   0.000625
    36  C    0.000000   0.000000   0.000000   0.000000   0.000000   0.000000
    37  H    0.000000   0.000000   0.000000   0.000000   0.000000   0.000000
    38  C    0.000001   0.000000   0.000000   0.000000   0.000000   0.000000
    39  H    0.000000   0.000000   0.000000   0.000000   0.000000   0.000000
    40  F    0.006273   0.000102   0.000000  -0.000002  -0.000001   0.000036
    41  H    0.000000   0.000000   0.000000   0.000000   0.000000   0.000000
    42  H    0.000000   0.000000   0.000000   0.000000   0.000000   0.000000
    43  H   -0.000004   0.000000   0.000000   0.000000   0.000000   0.000000
    44  C   -0.053960   0.265427  -0.005310   0.000002   0.000024   0.000998
    45  H   -0.005589  -0.042103  -0.000139   0.000000   0.000011   0.004256
    46  H   -0.002710  -0.039733  -0.000002   0.000000   0.000001   0.000131
    47  H    0.003986  -0.036961   0.004590   0.000000  -0.000001  -0.000167
    48  H   -0.000001  -0.000040  -0.000001   0.001408   0.000087   0.000006
              19         20         21         22         23         24
     1  C    0.000000   0.000000   0.000000  -0.000005   0.000000   0.000000
     2  C    0.000000   0.000000   0.000000  -0.000003   0.000000   0.000000
     3  C    0.000000   0.000000   0.000000   0.000000   0.000000   0.000000
     4  H    0.000000   0.000000   0.000000   0.000000   0.000000   0.000000
     5  H    0.000000   0.000000   0.000000   0.000000   0.000000   0.000000
     6  H    0.000000   0.000002   0.000000  -0.000001   0.000000   0.000000
     7  H    0.000000   0.000005   0.000000   0.000068   0.000000   0.000000
     8  H    0.000000   0.000000   0.000000   0.000000   0.000000   0.000000
     9  N   -0.026545   0.001527   0.002585   0.000712   0.000000   0.000000
    10  C    0.003159   0.000007  -0.029872  -0.061689   0.000000   0.000000
    11  C   -0.000073  -0.006612   0.359677   0.321355   0.000000   0.000000
    12  N    0.002542  -0.054909  -0.032076  -0.051446   0.000000   0.000000
    13  C    0.356351  -0.069337  -0.000181  -0.000567   0.000000   0.000000
    14  C   -0.038296   0.332359   0.004733  -0.007586   0.000000   0.000000
    15  H   -0.000106  -0.001090  -0.004195  -0.001657   0.000000   0.000000
    16  H   -0.000061   0.000100  -0.000762   0.000740   0.000000   0.000000
    17  H    0.000038   0.000282  -0.000389   0.005192   0.000000   0.000000
    18  H   -0.023123   0.005574   0.000053   0.000212   0.000000   0.000000
    19  H    0.517774   0.001792   0.000003   0.000085   0.000000   0.000000
    20  H    0.001792   0.656072  -0.000110   0.015050   0.000000   0.000000
    21  H    0.000003  -0.000110   0.540232  -0.034368   0.000000   0.000000
    22  H    0.000085   0.015050  -0.034368   0.657332   0.000000   0.000000
    23  O    0.000000   0.000000   0.000000   0.000000   8.108214  -0.000964
    24  O    0.000000   0.000000   0.000000   0.000000  -0.000964   8.226255
    25  O    0.000000   0.000000   0.000000   0.000000   0.000000  -0.061762
    26  N    0.000000   0.000000   0.000000   0.000000  -0.000019  -0.000001
    27  C    0.000258  -0.000207   0.000001  -0.000475   0.000004   0.000000
    28  C    0.000006   0.000008   0.000000   0.000010   0.003565  -0.000002
    29  C   -0.000010   0.000000   0.000000   0.000000  -0.104974   0.000083
    30  C    0.000000   0.000000   0.000000   0.000000   0.003702   0.003012
    31  C    0.000000   0.000000   0.000000   0.000000  -0.116881  -0.090273
    32  C    0.000000   0.000000   0.000000   0.000000   0.612243   0.002425
    33  C   -0.000111  -0.000003   0.000000   0.000000  -0.010462   0.000000
    34  C   -0.005773   0.001440  -0.000013   0.000400  -0.000004   0.000000
    35  C    0.000188   0.000043   0.000001   0.000014   0.000135   0.000000
    36  C    0.000000   0.000000   0.000000   0.000000  -0.004270   0.222333
    37  H    0.000000   0.000000   0.000000   0.000000  -0.000004   0.000197
    38  C    0.000007   0.000000   0.000000   0.000000   0.000652   0.000000
    39  H    0.000000   0.000000   0.000000   0.000000   0.000223   0.237576
    40  F    0.004548   0.000000   0.000000   0.000000   0.000000   0.000000
    41  H    0.000000   0.000000   0.000000   0.000000   0.009509   0.000000
    42  H    0.000000   0.000000   0.000000   0.000000   0.004546   0.000000
    43  H    0.000001   0.000000   0.000000   0.000000   0.000501   0.000000
    44  C   -0.001857  -0.045344  -0.000074   0.000000   0.000000   0.000000
    45  H    0.000164   0.004796   0.000000   0.000022   0.000000   0.000000
    46  H    0.003341   0.000621   0.000001   0.000009   0.000000   0.000000
    47  H   -0.000081  -0.004940  -0.000002  -0.000040   0.000000   0.000000
    48  H    0.000007   0.000285  -0.000001   0.002588   0.000000   0.000000
              25         26         27         28         29         30
     1  C    0.000004   0.265466  -0.002992  -0.058517   0.001628  -0.065335
     2  C    0.000000  -0.040856  -0.002105  -0.004153   0.000345   0.004200
     3  C   -0.000001  -0.032399   0.000556   0.003690  -0.000080  -0.009806
     4  H    0.000000   0.001143  -0.000002  -0.000043   0.000000   0.000118
     5  H   -0.000003  -0.002490  -0.000019  -0.000014  -0.000004   0.003576
     6  H    0.000000  -0.001316   0.000450   0.002279  -0.000088   0.000140
     7  H    0.000000   0.001232  -0.000171   0.000065  -0.000002  -0.000028
     8  H    0.000000  -0.037435   0.000636   0.000966  -0.000058   0.000593
     9  N    0.000000  -0.000004  -0.065415   0.004870  -0.000323   0.000000
    10  C    0.000000   0.000000  -0.002053   0.000075   0.000004   0.000000
    11  C    0.000000   0.000000   0.000226  -0.000006   0.000000   0.000000
    12  N    0.000000   0.000000   0.000019   0.000000   0.000000   0.000000
    13  C    0.000000   0.000000   0.001942  -0.000073  -0.000016   0.000000
    14  C    0.000000   0.000000   0.000249  -0.000002  -0.000001   0.000000
    15  H    0.000000   0.000000   0.000001   0.000000   0.000000   0.000000
    16  H    0.000000  -0.000001   0.002601  -0.000114  -0.000003   0.000000
    17  H    0.000000   0.000000  -0.000046   0.000005   0.000000   0.000000
    18  H    0.000000   0.000000  -0.000151   0.000002   0.000000   0.000000
    19  H    0.000000   0.000000   0.000258   0.000006  -0.000010   0.000000
    20  H    0.000000   0.000000  -0.000207   0.000008   0.000000   0.000000
    21  H    0.000000   0.000000   0.000001   0.000000   0.000000   0.000000
    22  H    0.000000   0.000000  -0.000475   0.000010   0.000000   0.000000
    23  O    0.000000  -0.000019   0.000004   0.003565  -0.104974   0.003702
    24  O   -0.061762  -0.000001   0.000000  -0.000002   0.000083   0.003012
    25  O    8.152330   0.000106   0.000000   0.000001  -0.000017   0.004460
    26  N    0.000106   7.425098  -0.048269   0.183001  -0.028493   0.240124
    27  C    0.000000  -0.048269   5.413781   0.342804  -0.036998   0.001499
    28  C    0.000001   0.183001   0.342804   5.109742   0.278766  -0.074223
    29  C   -0.000017  -0.028493  -0.036998   0.278766   5.944776  -0.000951
[...]
    15  H    0.000000   0.000000   0.000001   0.000000   0.000000   0.000000
    16  H    0.000000  -0.000002   0.001647  -0.000022  -0.000004   0.000000
    17  H    0.000000   0.000000   0.000123  -0.000001   0.000000   0.000000
    18  H    0.000000   0.000000  -0.000088   0.000001   0.000000   0.000000
    19  H    0.000000   0.000000  -0.000039   0.000011  -0.000025   0.000000
    20  H    0.000000   0.000000  -0.000136   0.000001   0.000001   0.000000
    21  H    0.000000   0.000000   0.000010   0.000001   0.000000   0.000000
    22  H    0.000000  -0.000001  -0.000191  -0.000001   0.000001   0.000000
    23  O   -0.000001  -0.000023   0.000005   0.003550  -0.103504   0.003586
    24  O   -0.062376  -0.000001   0.000000  -0.000003   0.000113   0.003333
    25  O    8.150403   0.000105   0.000000   0.000001  -0.000015   0.002724
    26  N    0.000105   7.420969  -0.047161   0.177215  -0.025899   0.240023
    27  C    0.000000  -0.047161   5.392877   0.366091  -0.039723   0.001779
    28  C    0.000001   0.177215   0.366091   5.095261   0.272861  -0.074513
    29  C   -0.000015  -0.025899  -0.039723   0.272861   5.929577  -0.004292
    30  C    0.002724   0.240023   0.001779  -0.074513  -0.004292   5.137504
    31  C   -0.114607  -0.017081  -0.000381  -0.007511  -0.176338   0.301767
    32  C    0.001961  -0.035862   0.006182   0.003955   0.017346  -0.027216
    33  C    0.000000   0.005411  -0.044719  -0.059452   0.312183  -0.000227
    34  C    0.000000   0.004830   0.279892  -0.006579  -0.043478  -0.000103
    35  C    0.000000  -0.000388  -0.018146  -0.045596  -0.016405   0.000046
    36  C    0.515973   0.004816  -0.000003  -0.000406   0.005013  -0.101220
    37  H    0.023293  -0.033399  -0.000056   0.003033  -0.000533   0.362915
    38  C    0.000000  -0.000013  -0.000213   0.003465  -0.056444  -0.000023
    39  H    0.004704   0.000000   0.000000   0.000000   0.000006  -0.000294
    40  F    0.000000   0.000000   0.002394  -0.000215   0.002544   0.000000
    41  H    0.000000   0.000000   0.000007  -0.000048  -0.005161  -0.000003
    42  H    0.000000   0.000000   0.000003  -0.000034  -0.005077  -0.000004
    43  H    0.000000   0.000000  -0.000049  -0.000054   0.003675   0.000000
    44  C    0.000000   0.000000  -0.000002   0.000000   0.000000   0.000000
    45  H    0.000000   0.000000   0.000000   0.000000   0.000000   0.000000
    46  H    0.000000   0.000000   0.000000   0.000000   0.000000   0.000000
    47  H    0.000000   0.000000   0.000000   0.000000   0.000000   0.000000
    48  H    0.000000  -0.009042   0.389160  -0.047433   0.004596   0.000050
              31         32         33         34         35         36
     1  C    0.002303   0.000033  -0.000080   0.000144   0.000003  -0.000052
     2  C   -0.000187   0.000001   0.000001   0.000076  -0.000005   0.000001
     3  C    0.000538  -0.000010   0.000000  -0.000009   0.000000  -0.000008
     4  H   -0.000003   0.000000   0.000000   0.000000   0.000000   0.000000
     5  H   -0.000004  -0.000002   0.000000   0.000000   0.000000   0.000002
     6  H   -0.000005  -0.000001   0.000000  -0.000008   0.000000   0.000000
     7  H    0.000001   0.000000   0.000000   0.000004   0.000000   0.000000
     8  H   -0.000016   0.000005  -0.000002  -0.000026   0.000000   0.000001
     9  N    0.000000   0.000000   0.004303   0.273214  -0.070196   0.000000
    10  C    0.000000   0.000000  -0.000085  -0.062897   0.000816   0.000000
    11  C    0.000000   0.000000   0.000003  -0.000120  -0.000139   0.000000
    12  N    0.000000   0.000000   0.000000  -0.000103  -0.000006   0.000000
    13  C    0.000000   0.000000   0.000037  -0.055226  -0.001747   0.000000
    14  C    0.000000   0.000000   0.000019   0.000665   0.000491   0.000000
    15  H    0.000000   0.000000   0.000000  -0.000007   0.000000   0.000000
    16  H    0.000000   0.000000  -0.000007  -0.002711   0.000261   0.000000
    17  H    0.000000   0.000000   0.000000   0.003148   0.000018   0.000000
    18  H    0.000000   0.000000  -0.000005   0.002697   0.000145   0.000000
    19  H    0.000000   0.000000   0.000465  -0.008276  -0.001874   0.000000
    20  H    0.000000   0.000000  -0.000009   0.002385   0.000063   0.000000
    21  H    0.000000   0.000000   0.000000  -0.000002   0.000001   0.000000
    22  H    0.000000   0.000000  -0.000002   0.001564  -0.000013   0.000000
    23  O   -0.109849   0.604774  -0.011559  -0.000004   0.000133  -0.005287
    24  O   -0.091101   0.001854   0.000000   0.000000   0.000000   0.222187
    25  O   -0.114607   0.001961   0.000000   0.000000   0.000000   0.515973
    26  N   -0.017081  -0.035862   0.005411   0.004830  -0.000388   0.004816
    27  C   -0.000381   0.006182  -0.044719   0.279892  -0.018146  -0.000003
    28  C   -0.007511   0.003955  -0.059452  -0.006579  -0.045596  -0.000406
    29  C   -0.176338   0.017346   0.312183  -0.043478  -0.016405   0.005013
    30  C    0.301767  -0.027216  -0.000227  -0.000103   0.000046  -0.101220
    31  C    6.412866  -0.016793   0.005661   0.000007  -0.000181   0.070034
    32  C   -0.016793   5.171102  -0.094207  -0.000886   0.005602  -0.037930
    33  C    0.005661  -0.094207   5.650492  -0.071472   0.215550  -0.000020
    34  C    0.000007  -0.000886  -0.071472   5.263872   0.182186   0.000000
    35  C   -0.000181   0.005602   0.215550   0.182186   5.254921   0.000000
    36  C    0.070034  -0.037930  -0.000020   0.000000   0.000000   4.691486
    37  H   -0.059648   0.002802  -0.000002   0.000000   0.000000   0.000772
    38  C    0.000539  -0.006776   0.307683   0.004705  -0.090352   0.000002
    39  H    0.011904  -0.000040   0.000000   0.000000   0.000000  -0.028815
    40  F    0.000000  -0.000002  -0.059146  -0.059533   0.291635   0.000000
    41  H    0.000070   0.001242  -0.040369  -0.000052   0.002885   0.000001
    42  H    0.000054   0.001118  -0.040589  -0.000044   0.002539   0.000001
    43  H    0.000011   0.000546  -0.052181   0.001200  -0.003576   0.000000
    44  C    0.000000   0.000000   0.000000  -0.000001  -0.000011   0.000000
    45  H    0.000000   0.000000   0.000000   0.000001   0.000000   0.000000
    46  H    0.000000   0.000000   0.000000   0.000004  -0.000004   0.000000
    47  H    0.000000   0.000000   0.000000   0.000000   0.000000   0.000000
    48  H    0.000004  -0.000008  -0.000513  -0.046879   0.004300   0.000000
              37         38         39         40         41         42
     1  C   -0.001136   0.000000   0.000000   0.000000   0.000000   0.000000
     2  C   -0.000198   0.000000   0.000000   0.000000   0.000000   0.000000
     3  C    0.001767   0.000000   0.000000   0.000000   0.000000   0.000000
     4  H   -0.000002   0.000000   0.000000   0.000000   0.000000   0.000000
     5  H    0.001548   0.000000   0.000000   0.000000   0.000000   0.000000
     6  H    0.000022   0.000000   0.000000   0.000000   0.000000   0.000000
     7  H    0.000001   0.000000   0.000000   0.000000   0.000000   0.000000
     8  H    0.000085   0.000000   0.000000   0.000000   0.000000   0.000000
     9  N    0.000000  -0.000015   0.000000  -0.002315   0.000000   0.000000
    10  C    0.000000   0.000000   0.000000  -0.000021   0.000000   0.000000
    11  C    0.000000   0.000000   0.000000   0.000000   0.000000   0.000000
    12  N    0.000000   0.000000   0.000000   0.000000   0.000000   0.000000
    13  C    0.000000  -0.000003   0.000000  -0.010204   0.000000   0.000000
    14  C    0.000000   0.000000   0.000000   0.000125   0.000000   0.000000
    15  H    0.000000   0.000000   0.000000   0.000000   0.000000   0.000000
    16  H    0.000000   0.000000   0.000000   0.000000   0.000000   0.000000
    17  H    0.000000   0.000000   0.000000  -0.000001   0.000000   0.000000
    18  H    0.000000   0.000000   0.000000   0.000007   0.000000   0.000000
    19  H    0.000000   0.000027   0.000000   0.033831   0.000000   0.000000
    20  H    0.000000   0.000000   0.000000   0.000006   0.000000   0.000000
    21  H    0.000000   0.000000   0.000000   0.000000   0.000000   0.000000
    22  H    0.000000   0.000000   0.000000   0.000000   0.000000   0.000000
    23  O   -0.000003   0.001747   0.000262   0.000000   0.006868   0.006680
    24  O    0.000289   0.000000   0.235692   0.000000   0.000000   0.000000
    25  O    0.023293   0.000000   0.004704   0.000000   0.000000   0.000000
    26  N   -0.033399  -0.000013   0.000000   0.000000   0.000000   0.000000
    27  C   -0.000056  -0.000213   0.000000   0.002394   0.000007   0.000003
    28  C    0.003033   0.003465   0.000000  -0.000215  -0.000048  -0.000034
    29  C   -0.000533  -0.056444   0.000006   0.002544  -0.005161  -0.005077
    30  C    0.362915  -0.000023  -0.000294   0.000000  -0.000003  -0.000004
    31  C   -0.059648   0.000539   0.011904   0.000000   0.000070   0.000054
    32  C    0.002802  -0.006776  -0.000040  -0.000002   0.001242   0.001118
    33  C   -0.000002   0.307683   0.000000  -0.059146  -0.040369  -0.040589
    34  C    0.000000   0.004705   0.000000  -0.059533  -0.000052  -0.000044
    35  C    0.000000  -0.090352   0.000000   0.291635   0.002885   0.002539
    36  C    0.000772   0.000002  -0.028815   0.000000   0.000001   0.000001
    37  H    0.437616   0.000000  -0.000017   0.000000   0.000000   0.000000
    38  C    0.000000   5.361301   0.000000  -0.010619   0.361353   0.363105
    39  H   -0.000017   0.000000   0.420029   0.000000   0.000000   0.000000
    40  F    0.000000  -0.010619   0.000000   9.078633   0.000150   0.000137
    41  H    0.000000   0.361353   0.000000   0.000150   0.494022  -0.026044
    42  H    0.000000   0.363105   0.000000   0.000137  -0.026044   0.492005
    43  H    0.000000   0.333018   0.000000   0.017156  -0.022706  -0.022781
    44  C    0.000000   0.000000   0.000000   0.000001   0.000000   0.000000
    45  H    0.000000   0.000000   0.000000   0.000000   0.000000   0.000000
    46  H    0.000000   0.000000   0.000000  -0.000005   0.000000   0.000000
    47  H    0.000000   0.000000   0.000000   0.000000   0.000000   0.000000
    48  H    0.000004   0.000000   0.000000   0.000000   0.000000   0.000000
              43         44         45         46         47         48
     1  C    0.000000   0.000000   0.000000   0.000000   0.000000   0.004822
     2  C    0.000000   0.000000   0.000000   0.000000   0.000000   0.000868
     3  C    0.000000   0.000000   0.000000   0.000000   0.000000  -0.000138
     4  H    0.000000   0.000000   0.000000   0.000000   0.000000   0.000004
     5  H    0.000000   0.000000   0.000000   0.000000   0.000000   0.000008
     6  H    0.000000   0.000000   0.000000   0.000000   0.000000  -0.000532
     7  H    0.000000   0.000000   0.000000   0.000000   0.000000   0.000605
     8  H    0.000000   0.000000   0.000000   0.000000   0.000000  -0.000413
     9  N    0.000000   0.002603  -0.000014  -0.000002  -0.000040  -0.008394
    10  C    0.000000   0.000061  -0.000027   0.000008   0.000002   0.000900
    11  C    0.000000   0.004235  -0.000018  -0.000110  -0.000052   0.000219
    12  N    0.000000  -0.052813   0.004087   0.002487  -0.001362  -0.000019
    13  C    0.000003  -0.056896  -0.006201  -0.002242   0.003746   0.000040
    14  C    0.000000   0.263671  -0.042509  -0.039882  -0.035646  -0.000018
    15  H    0.000000  -0.004178  -0.000281  -0.000046   0.004222   0.000000
    16  H    0.000000   0.000003   0.000000   0.000000   0.000000   0.003932
    17  H    0.000000  -0.000013   0.000036   0.000002  -0.000002   0.000084
    18  H    0.000000  -0.000389   0.005645   0.000226  -0.000164   0.000001
    19  H   -0.000004  -0.000420   0.000173   0.002907  -0.000076   0.000000
    20  H    0.000000  -0.046146   0.004525   0.001148  -0.003698   0.000035
    21  H    0.000000  -0.000064  -0.000001   0.000001  -0.000002  -0.000022
    22  H    0.000000  -0.000088   0.000019   0.000009  -0.000019   0.002755
    23  O    0.000616   0.000000   0.000000   0.000000   0.000000   0.000000
    24  O    0.000000   0.000000   0.000000   0.000000   0.000000   0.000000
    25  O    0.000000   0.000000   0.000000   0.000000   0.000000   0.000000
    26  N    0.000000   0.000000   0.000000   0.000000   0.000000  -0.009042
    27  C   -0.000049  -0.000002   0.000000   0.000000   0.000000   0.389160
    28  C   -0.000054   0.000000   0.000000   0.000000   0.000000  -0.047433
    29  C    0.003675   0.000000   0.000000   0.000000   0.000000   0.004596
    30  C    0.000000   0.000000   0.000000   0.000000   0.000000   0.000050
    31  C    0.000011   0.000000   0.000000   0.000000   0.000000   0.000004
    32  C    0.000546   0.000000   0.000000   0.000000   0.000000  -0.000008
    33  C   -0.052181   0.000000   0.000000   0.000000   0.000000  -0.000513
    34  C    0.001200  -0.000001   0.000001   0.000004   0.000000  -0.046879
    35  C   -0.003576  -0.000011   0.000000  -0.000004   0.000000   0.004300
    36  C    0.000000   0.000000   0.000000   0.000000   0.000000   0.000000
    37  H    0.000000   0.000000   0.000000   0.000000   0.000000   0.000004
    38  C    0.333018   0.000000   0.000000   0.000000   0.000000   0.000000
    39  H    0.000000   0.000000   0.000000   0.000000   0.000000   0.000000
    40  F    0.017156   0.000001   0.000000  -0.000005   0.000000   0.000000
    41  H   -0.022706   0.000000   0.000000   0.000000   0.000000   0.000000
    42  H   -0.022781   0.000000   0.000000   0.000000   0.000000   0.000000
    43  H    0.559168   0.000000   0.000000   0.000000   0.000000   0.000000
    44  C    0.000000   5.357447   0.357128   0.357373   0.363240   0.000000
    45  H    0.000000   0.357128   0.523286  -0.022615  -0.028054   0.000000
    46  H    0.000000   0.357373  -0.022615   0.533995  -0.026851   0.000000
    47  H    0.000000   0.363240  -0.028054  -0.026851   0.538984   0.000000
    48  H    0.000000   0.000000   0.000000   0.000000   0.000000   0.492488
 Mulliken charges:
               1
     1  C   -0.050189
     2  C   -0.381580
     3  C   -0.405010
     4  H    0.223342
     5  H    0.234285
     6  H    0.236382
     7  H    0.211320
     8  H    0.231455
     9  N   -0.689244
    10  C   -0.193491
    11  C   -0.228550
    12  N   -0.559407
    13  C   -0.198929
    14  C   -0.075361
    15  H    0.271930
    16  H    0.200037
    17  H    0.225891
    18  H    0.209487
    19  H    0.228370
    20  H    0.174015
    21  H    0.195910
    22  H    0.170421
    23  O   -0.509322
    24  O   -0.539756
    25  O   -0.522159
    26  N   -0.845189
    27  C   -0.224400
    28  C    0.363502
    29  C   -0.072217
    30  C    0.217123
    31  C   -0.212055
    32  C    0.401211
    33  C   -0.027163
    34  C    0.337821
    35  C    0.287043
    36  C    0.663452
    37  H    0.260844
    38  C   -0.572488
    39  H    0.356570
    40  F   -0.284556
    41  H    0.227784
    42  H    0.228930
    43  H    0.185959
    44  C   -0.544743
    45  H    0.204820
    46  H    0.193597
    47  H    0.185770
    48  H    0.208536
 Sum of Mulliken charges =   0.00000
 Mulliken charges with hydrogens summed into heavy atoms:
               1
     1  C    0.181266
     2  C    0.066123
     3  C    0.052618
     9  N   -0.689244
    10  C    0.232438
    11  C    0.137780
    12  N   -0.287477
    13  C    0.238928
    14  C    0.098654
    23  O   -0.509322
    24  O   -0.183186
    25  O   -0.522159
    26  N   -0.845189
    27  C   -0.015863
    28  C    0.363502
    29  C   -0.072217
    30  C    0.477966
    31  C   -0.212055
    32  C    0.401211
    33  C   -0.027163
    34  C    0.337821
    35  C    0.287043
    36  C    0.663452
    38  C    0.070185
    40  F   -0.284556
    44  C    0.039444
 Electronic spatial extent (au):  <R**2>=          10902.9284
 Charge=              0.0000 electrons
 Dipole moment (field-independent basis, Debye):
    X=              5.0141    Y=              6.0589    Z=              0.4894  Tot=              7.8798
 Quadrupole moment (field-independent basis, Debye-Ang):
   XX=           -156.0629   YY=           -145.3552   ZZ=           -150.2512
   XY=             -0.4687   XZ=              5.2233   YZ=             -2.1065
 Traceless Quadrupole moment (field-independent basis, Debye-Ang):
   XX=             -5.5065   YY=              5.2012   ZZ=              0.3053
   XY=             -0.4687   XZ=              5.2233   YZ=             -2.1065
 Octapole moment (field-independent basis, Debye-Ang**2):
  XXX=             21.5074  YYY=             45.9431  ZZZ=              5.2736  XYY=             24.0809
  XXY=            -20.9490  XXZ=             35.0345  XZZ=              1.0726  YZZ=             -1.6147
  YYZ=             -7.6345  XYZ=             -0.2417
 Hexadecapole moment (field-independent basis, Debye-Ang**3):
 XXXX=          -9686.8964 YYYY=          -3272.1231 ZZZZ=           -533.7690 XXXY=            392.7634
 XXXZ=             65.2222 YYYX=            -65.3500 YYYZ=            -34.9021 ZZZX=            -22.2703
 ZZZY=             -0.7705 XXYY=          -2287.9389 XXZZ=          -1686.2001 YYZZ=           -649.2075
 XXYZ=             19.8311 YYXZ=             23.7644 ZZXY=             24.6918
 N-N= 2.392261305553D+03 E-N=-7.628812082270D+03  KE= 1.210187591365D+03
 1\1\GINC-NODE045\FOpt\RB3LYP\3-21G\C19H22F1N3O3\SUPERCOMPUTO1\06-Jul-2
 020\0\\# opt b3lyp/3-21g geom=connectivity\\Title Card Required\\0,1\C
 ,10.1240302634,8.637081612,7.4650455774\C,10.2346324773,7.6698481373,8
 .6391487246\C,10.9777673245,8.9981798412,8.6692302622\H,12.0511085916,
 8.9948666394,8.5266772945\H,10.6025422537,9.7533484678,9.3480198079\H,
 9.3616013954,7.5839483004,9.2733951653\H,10.8040484017,6.7602328692,8.
 4899199947\H,10.639361592,8.3720099384,6.5474799199\N,6.810460891,5.23
 24717329,5.6748953762\C,8.1064172174,4.528310819,5.6119932108\C,8.3565
 967148,3.7494077115,6.9188860442\N,7.2269881993,2.8040940074,7.0869745
 995\C,5.6907982618,4.2805032044,5.8917459821\C,5.9115964005,3.48800697
 46,7.1977324088\H,7.3795781513,2.1699053688,7.8782460182\H,8.908645481
 5,5.2358773013,5.3954163044\H,8.0443239841,3.7986310824,4.7964390748\H
 ,5.6844727547,3.564514667,5.0612272782\H,4.7531544259,4.8243192259,5.9
 171204038\H,5.8831573318,4.2085419877,8.0365994187\H,9.2859976176,3.17
 55328454,6.8370213622\H,8.4539648501,4.4705807971,7.7513544256\O,5.390
 8263728,11.5066242057,6.6318284394\O,6.7949411634,13.6592102345,7.3950
 179899\O,8.9672083739,13.3519114722,8.0118366507\N,8.8696224632,9.3508
 681777,7.25727605\C,7.8119955701,7.3050004816,6.4934934889\C,7.7345661
 627,8.6759551945,6.752317618\C,6.5393749138,9.4006306679,6.5298996622\
 C,8.8119747861,10.6900502602,7.4750052656\C,7.6998024458,11.4528503759
 ,7.2816600927\C,6.4460707124,10.8614079447,6.8036538941\C,5.4222580162
 ,8.6839491523,6.0227706616\C,6.7248428508,6.5828257322,5.9828622023\C,
 5.5462253699,7.3344253017,5.7546490071\C,7.9013517895,12.8748334979,7.
 5983139448\H,9.7142326248,11.1740582096,7.8242930043\C,4.0840135808,9.
 334985001,5.7194010122\H,7.0530075534,14.5917619284,7.6383272088\F,4.4
 481040582,6.672219042,5.2185508657\H,3.6672207893,9.789920343,6.619894
 4248\H,4.206660907,10.1480163681,5.0013068686\H,3.4005318732,8.5843667
 147,5.324742938\C,4.8132038259,2.4312240649,7.375760496\H,4.8506434987
 ,1.7269933006,6.5387616804\H,3.8250169934,2.9018464859,7.4123026577\H,
 4.9615384748,1.8722274793,8.3073432595\H,8.7235902484,6.7855348319,6.7
 325019625\\Version=ES64L-G09RevD.01\State=1-A\HF=-1220.2900225\RMSD=7.
 706e-09\RMSF=9.821e-06\Dipole=1.7724147,-2.424988,0.7673641\Quadrupole
 =4.7764544,-3.6144812,-1.1619731,0.1696928,-0.5629947,-3.8180103\PG=C0
 1 [X(C19H22F1N3O3)]\\@


 HE THAT IS UNAWARE OF HIS IGNORANCE WILL BE MISLED BY HIS KNOWLEDGE.

                                        -- WHATLEY
 Job cpu time:       0 days  1 hours 30 minutes 30.4 seconds.
 File lengths (MBytes):  RWF=     51 Int=      0 D2E=      0 Chk=      8 Scr=      1
 Normal termination of Gaussian 09 at Mon Jul  6 12:20:28 2020.
