 Entering Gaussian System, Link 0=g09
 Input=fleroxacino.gjf
 Output=fleroxacino.log
 Initial command:
 /usr/local/cluster_programs/g09/l1.exe "/tmp/scratch/64553.prometeo/Gau-13335.inp" -scrdir="/tmp/scratch/64553.prometeo/"
 Entering Link 1 = /usr/local/cluster_programs/g09/l1.exe PID=     13336.
  
 Copyright (c) 1988,1990,1992,1993,1995,1998,2003,2009,2013,
            Gaussian, Inc.  All Rights Reserved.
  
 This is part of the Gaussian(R) 09 program.  It is based on
 the Gaussian(R) 03 system (copyright 2003, Gaussian, Inc.),
 the Gaussian(R) 98 system (copyright 1998, Gaussian, Inc.),
 the Gaussian(R) 94 system (copyright 1995, Gaussian, Inc.),
 the Gaussian 92(TM) system (copyright 1992, Gaussian, Inc.),
 the Gaussian 90(TM) system (copyright 1990, Gaussian, Inc.),
 the Gaussian 88(TM) system (copyright 1988, Gaussian, Inc.),
 the Gaussian 86(TM) system (copyright 1986, Carnegie Mellon
 University), and the Gaussian 82(TM) system (copyright 1983,
 Carnegie Mellon University). Gaussian is a federally registered
 trademark of Gaussian, Inc.
  
 This software contains proprietary and confidential information,
 including trade secrets, belonging to Gaussian, Inc.
  
 This software is provided under written license and may be
 used, copied, transmitted, or stored only in accord with that
 written license.
  
 The following legend is applicable only to US Government
 contracts under FAR:
  
                    RESTRICTED RIGHTS LEGEND
  
 Use, reproduction and disclosure by the US Government is
 subject to restrictions as set forth in subparagraphs (a)
 and (c) of the Commercial Computer Software - Restricted
 Rights clause in FAR 52.227-19.
  
 Gaussian, Inc.
 340 Quinnipiac St., Bldg. 40, Wallingford CT 06492
  
  
 ---------------------------------------------------------------
 Warning -- This program may not be used in any manner that
 competes with the business of Gaussian, Inc. or will provide
 assistance to any competitor of Gaussian, Inc.  The licensee
 of this program is prohibited from giving any competitor of
 Gaussian, Inc. access to this program.  By using this program,
 the user acknowledges that Gaussian, Inc. is engaged in the
 business of creating and licensing software in the field of
 computational chemistry and represents and warrants to the
 licensee that it is not a competitor of Gaussian, Inc. and that
 it will not use this program in any manner prohibited above.
 ---------------------------------------------------------------
  

 Cite this work as:
 Gaussian 09, Revision D.01,
 M. J. Frisch, G. W. Trucks, H. B. Schlegel, G. E. Scuseria, 
 M. A. Robb, J. R. Cheeseman, G. Scalmani, V. Barone, B. Mennucci, 
 G. A. Petersson, H. Nakatsuji, M. Caricato, X. Li, H. P. Hratchian, 
 A. F. Izmaylov, J. Bloino, G. Zheng, J. L. Sonnenberg, M. Hada, 
 M. Ehara, K. Toyota, R. Fukuda, J. Hasegawa, M. Ishida, T. Nakajima, 
 Y. Honda, O. Kitao, H. Nakai, T. Vreven, J. A. Montgomery, Jr., 
 J. E. Peralta, F. Ogliaro, M. Bearpark, J. J. Heyd, E. Brothers, 
 K. N. Kudin, V. N. Staroverov, T. Keith, R. Kobayashi, J. Normand, 
 K. Raghavachari, A. Rendell, J. C. Burant, S. S. Iyengar, J. Tomasi, 
 M. Cossi, N. Rega, J. M. Millam, M. Klene, J. E. Knox, J. B. Cross, 
 V. Bakken, C. Adamo, J. Jaramillo, R. Gomperts, R. E. Stratmann, 
 O. Yazyev, A. J. Austin, R. Cammi, C. Pomelli, J. W. Ochterski, 
 R. L. Martin, K. Morokuma, V. G. Zakrzewski, G. A. Voth, 
 P. Salvador, J. J. Dannenberg, S. Dapprich, A. D. Daniels, 
 O. Farkas, J. B. Foresman, J. V. Ortiz, J. Cioslowski, 
 and D. J. Fox, Gaussian, Inc., Wallingford CT, 2013.
 
 ******************************************
 Gaussian 09:  ES64L-G09RevD.01 24-Apr-2013
                13-Aug-2020 
 ******************************************
 %nprocshared=20
 Will use up to   20 processors via shared memory.
 -----------------------------------------------------
 #opt M06/lanl2dz integral=ultrafine geom=connectivity
 -----------------------------------------------------
 1/14=-1,18=20,19=15,26=4,38=1,57=2/1,3;
 2/9=110,12=2,17=6,18=5,40=1/2;
 3/5=6,6=3,11=2,16=1,25=1,30=1,71=1,74=-54,75=-5/1,2,3;
 4//1;
 5/5=2,38=5/2;
 6/7=2,8=2,9=2,10=2,28=1/1;
 7//1,2,3,16;
 1/14=-1,18=20,19=15,26=4/3(2);
 2/9=110/2;
 99//99;
 2/9=110/2;
 3/5=6,6=3,11=2,16=1,25=1,30=1,71=1,74=-54,75=-5/1,2,3;
 4/5=5,16=3,69=1/1;
 5/5=2,38=5/2;
 7//1,2,3,16;
 1/14=-1,18=20,19=15,26=4/3(-5);
 2/9=110/2;
 6/7=2,8=2,9=2,10=2,19=2,28=1/1;
 99/9=1/99;
 -------------------
 Title Card Required
 -------------------
 Symbolic Z-matrix:
 Charge =  0 Multiplicity = 1
 F                    -8.06599   9.82874   7.62839 
 F                    -8.92527   5.22465   6.90827 
 F                    -4.74115   11.8122   5.8952 
 O                    -3.98065   5.45477   6.87547 
 O                    -1.46896   6.55084   6.41601 
 O                    -1.23523   8.75174   6.90223 
 N                    -9.8988    7.86341   7.23914 
 N                    -12.5058   8.86982   7.72936 
 N                    -5.22711   9.34891   7.49953 
 C                    -10.4623   8.90952   6.38673 
 C                    -10.9091   6.99358   7.83114 
 C                    -11.4756   9.73573   7.16517 
 C                    -11.9191   7.84913   8.58867 
 C                    -8.55246   7.55735   7.23925 
 C                    -6.19475   8.33759   7.35681 
 C                    -7.57914   8.55945   7.40277 
 C                    -13.5345   9.63318   8.42006 
 C                    -8.03564   6.24807   7.09114 
 C                    -5.75435   7.00695   7.15651 
 C                    -6.69392   5.97579   7.05246 
 C                    -5.53358   10.7391   7.88282 
 C                    -4.3229    6.64419   6.99865 
 C                    -3.92123   9.04189   7.28977 
 C                    -3.42451   7.7923    7.0078 
 C                    -5.87584   11.6475   6.71926 
 C                    -1.96568   7.76018   6.78421 
 H                    -9.66446   9.54797   5.99424 
 H                    -10.9724   8.43381   5.5261 
 H                    -11.4285   6.39784   7.05713 
 H                    -10.4285   6.29943   8.52923 
 H                    -10.9423   10.3068   7.96172 
 H                    -11.9556   10.4669   6.49653 
 H                    -12.7256   7.20168   8.96518 
 H                    -11.4131   8.30551   9.47184 
 H                    -14.3263   8.95907   8.77113 
 H                    -13.9945   10.3453   7.72333 
 H                    -13.1297   10.1962   9.29067 
 H                    -6.32121   4.96513   6.88309 
 H                    -6.35215   10.7527   8.6095 
 H                    -4.64115   11.1324   8.38703 
 H                    -3.2208    9.87494   7.35268 
 H                    -6.68228   11.2443   6.09141 
 H                    -6.16317   12.6427   7.09469 
 H                    -0.50222   6.70408   6.29863 
 

 GradGradGradGradGradGradGradGradGradGradGradGradGradGradGradGradGradGrad
 Berny optimization.
 Initialization pass.
                           ----------------------------
                           !    Initial Parameters    !
                           ! (Angstroms and Degrees)  !
 --------------------------                            --------------------------
 ! Name  Definition              Value          Derivative Info.                !
 --------------------------------------------------------------------------------
 ! R1    R(1,16)                 1.3781         estimate D2E/DX2                !
 ! R2    R(2,18)                 1.3683         estimate D2E/DX2                !
 ! R3    R(3,25)                 1.412          estimate D2E/DX2                !
 ! R4    R(4,22)                 1.2438         estimate D2E/DX2                !
 ! R5    R(5,26)                 1.3582         estimate D2E/DX2                !
 ! R6    R(5,44)                 0.9858         estimate D2E/DX2                !
 ! R7    R(6,26)                 1.2372         estimate D2E/DX2                !
 ! R8    R(7,10)                 1.4624         estimate D2E/DX2                !
 ! R9    R(7,11)                 1.4587         estimate D2E/DX2                !
 ! R10   R(7,14)                 1.3807         estimate D2E/DX2                !
 ! R11   R(8,12)                 1.4593         estimate D2E/DX2                !
 ! R12   R(8,13)                 1.4575         estimate D2E/DX2                !
 ! R13   R(8,17)                 1.4553         estimate D2E/DX2                !
 ! R14   R(9,15)                 1.4069         estimate D2E/DX2                !
 ! R15   R(9,21)                 1.4743         estimate D2E/DX2                !
 ! R16   R(9,23)                 1.3578         estimate D2E/DX2                !
 ! R17   R(10,12)                1.5216         estimate D2E/DX2                !
 ! R18   R(10,27)                1.0946         estimate D2E/DX2                !
 ! R19   R(10,28)                1.1078         estimate D2E/DX2                !
 ! R20   R(11,13)                1.5251         estimate D2E/DX2                !
 ! R21   R(11,29)                1.1062         estimate D2E/DX2                !
 ! R22   R(11,30)                1.0955         estimate D2E/DX2                !
 ! R23   R(12,31)                1.1158         estimate D2E/DX2                !
 ! R24   R(12,32)                1.1009         estimate D2E/DX2                !
 ! R25   R(13,33)                1.1006         estimate D2E/DX2                !
 ! R26   R(13,34)                1.1155         estimate D2E/DX2                !
 ! R27   R(14,16)                1.4065         estimate D2E/DX2                !
 ! R28   R(14,18)                1.4154         estimate D2E/DX2                !
 ! R29   R(15,16)                1.4028         estimate D2E/DX2                !
 ! R30   R(15,19)                1.4159         estimate D2E/DX2                !
 ! R31   R(17,35)                1.0976         estimate D2E/DX2                !
 ! R32   R(17,36)                1.0973         estimate D2E/DX2                !
 ! R33   R(17,37)                1.113          estimate D2E/DX2                !
 ! R34   R(18,20)                1.3696         estimate D2E/DX2                !
 ! R35   R(19,20)                1.3989         estimate D2E/DX2                !
 ! R36   R(19,22)                1.4851         estimate D2E/DX2                !
 ! R37   R(20,38)                1.0904         estimate D2E/DX2                !
 ! R38   R(21,25)                1.5153         estimate D2E/DX2                !
 ! R39   R(21,39)                1.0947         estimate D2E/DX2                !
 ! R40   R(21,40)                1.0979         estimate D2E/DX2                !
 ! R41   R(22,24)                1.4579         estimate D2E/DX2                !
 ! R42   R(23,24)                1.3739         estimate D2E/DX2                !
 ! R43   R(23,41)                1.0902         estimate D2E/DX2                !
 ! R44   R(24,26)                1.4762         estimate D2E/DX2                !
 ! R45   R(25,42)                1.0987         estimate D2E/DX2                !
 ! R46   R(25,43)                1.1018         estimate D2E/DX2                !
 ! A1    A(26,5,44)            104.6258         estimate D2E/DX2                !
 ! A2    A(10,7,11)            113.3443         estimate D2E/DX2                !
 ! A3    A(10,7,14)            122.3014         estimate D2E/DX2                !
 ! A4    A(11,7,14)            122.899          estimate D2E/DX2                !
 ! A5    A(12,8,13)            111.0577         estimate D2E/DX2                !
 ! A6    A(12,8,17)            111.7935         estimate D2E/DX2                !
 ! A7    A(13,8,17)            111.8411         estimate D2E/DX2                !
 ! A8    A(15,9,21)            124.1401         estimate D2E/DX2                !
 ! A9    A(15,9,23)            118.8989         estimate D2E/DX2                !
 ! A10   A(21,9,23)            116.9569         estimate D2E/DX2                !
 ! A11   A(7,10,12)            110.2934         estimate D2E/DX2                !
 ! A12   A(7,10,27)            110.2052         estimate D2E/DX2                !
 ! A13   A(7,10,28)            108.8502         estimate D2E/DX2                !
 ! A14   A(12,10,27)           110.6166         estimate D2E/DX2                !
 ! A15   A(12,10,28)           108.9033         estimate D2E/DX2                !
 ! A16   A(27,10,28)           107.91           estimate D2E/DX2                !
 ! A17   A(7,11,13)            109.011          estimate D2E/DX2                !
 ! A18   A(7,11,29)            111.2452         estimate D2E/DX2                !
 ! A19   A(7,11,30)            109.4271         estimate D2E/DX2                !
 ! A20   A(13,11,29)           109.7976         estimate D2E/DX2                !
 ! A21   A(13,11,30)           109.2364         estimate D2E/DX2                !
 ! A22   A(29,11,30)           108.0955         estimate D2E/DX2                !
 ! A23   A(8,12,10)            110.2261         estimate D2E/DX2                !
 ! A24   A(8,12,31)            111.4146         estimate D2E/DX2                !
 ! A25   A(8,12,32)            108.7296         estimate D2E/DX2                !
 ! A26   A(10,12,31)           108.9548         estimate D2E/DX2                !
 ! A27   A(10,12,32)           109.8916         estimate D2E/DX2                !
 ! A28   A(31,12,32)           107.5802         estimate D2E/DX2                !
 ! A29   A(8,13,11)            111.5047         estimate D2E/DX2                !
 ! A30   A(8,13,33)            108.5823         estimate D2E/DX2                !
 ! A31   A(8,13,34)            111.276          estimate D2E/DX2                !
 ! A32   A(11,13,33)           108.9772         estimate D2E/DX2                !
 ! A33   A(11,13,34)           108.8063         estimate D2E/DX2                !
 ! A34   A(33,13,34)           107.5911         estimate D2E/DX2                !
 ! A35   A(7,14,16)            121.1222         estimate D2E/DX2                !
 ! A36   A(7,14,18)            124.1329         estimate D2E/DX2                !
 ! A37   A(16,14,18)           114.7429         estimate D2E/DX2                !
 ! A38   A(9,15,16)            124.1754         estimate D2E/DX2                !
 ! A39   A(9,15,19)            118.4223         estimate D2E/DX2                !
 ! A40   A(16,15,19)           117.4021         estimate D2E/DX2                !
 ! A41   A(1,16,14)            115.5179         estimate D2E/DX2                !
 ! A42   A(1,16,15)            119.9793         estimate D2E/DX2                !
 ! A43   A(14,16,15)           124.5018         estimate D2E/DX2                !
 ! A44   A(8,17,35)            109.8515         estimate D2E/DX2                !
 ! A45   A(8,17,36)            109.5947         estimate D2E/DX2                !
 ! A46   A(8,17,37)            112.3018         estimate D2E/DX2                !
 ! A47   A(35,17,36)           107.413          estimate D2E/DX2                !
 ! A48   A(35,17,37)           108.8363         estimate D2E/DX2                !
 ! A49   A(36,17,37)           108.7132         estimate D2E/DX2                !
 ! A50   A(2,18,14)            117.9345         estimate D2E/DX2                !
 ! A51   A(2,18,20)            118.977          estimate D2E/DX2                !
 ! A52   A(14,18,20)           122.9952         estimate D2E/DX2                !
 ! A53   A(15,19,20)           119.6277         estimate D2E/DX2                !
 ! A54   A(15,19,22)           122.984          estimate D2E/DX2                !
 ! A55   A(20,19,22)           117.3498         estimate D2E/DX2                !
 ! A56   A(18,20,19)           120.6192         estimate D2E/DX2                !
 ! A57   A(18,20,38)           121.5663         estimate D2E/DX2                !
 ! A58   A(19,20,38)           117.7221         estimate D2E/DX2                !
 ! A59   A(9,21,25)            114.3687         estimate D2E/DX2                !
 ! A60   A(9,21,39)            109.8617         estimate D2E/DX2                !
 ! A61   A(9,21,40)            106.7519         estimate D2E/DX2                !
 ! A62   A(25,21,39)           109.4745         estimate D2E/DX2                !
 ! A63   A(25,21,40)           108.7532         estimate D2E/DX2                !
 ! A64   A(39,21,40)           107.3688         estimate D2E/DX2                !
 ! A65   A(4,22,19)            120.6195         estimate D2E/DX2                !
 ! A66   A(4,22,24)            125.7435         estimate D2E/DX2                !
 ! A67   A(19,22,24)           113.6369         estimate D2E/DX2                !
 ! A68   A(9,23,24)            125.8077         estimate D2E/DX2                !
 ! A69   A(9,23,41)            115.863          estimate D2E/DX2                !
 ! A70   A(24,23,41)           118.3291         estimate D2E/DX2                !
 ! A71   A(22,24,23)           119.6536         estimate D2E/DX2                !
 ! A72   A(22,24,26)           126.2207         estimate D2E/DX2                !
 ! A73   A(23,24,26)           114.0884         estimate D2E/DX2                !
 ! A74   A(3,25,21)            109.667          estimate D2E/DX2                !
 ! A75   A(3,25,42)            107.4065         estimate D2E/DX2                !
 ! A76   A(3,25,43)            107.6424         estimate D2E/DX2                !
 ! A77   A(21,25,42)           112.6181         estimate D2E/DX2                !
 ! A78   A(21,25,43)           109.8001         estimate D2E/DX2                !
 ! A79   A(42,25,43)           109.5595         estimate D2E/DX2                !
 ! A80   A(5,26,6)             121.5697         estimate D2E/DX2                !
 ! A81   A(5,26,24)            114.9505         estimate D2E/DX2                !
 ! A82   A(6,26,24)            123.4744         estimate D2E/DX2                !
 ! D1    D(44,5,26,6)            0.1372         estimate D2E/DX2                !
 ! D2    D(44,5,26,24)         179.3215         estimate D2E/DX2                !
 ! D3    D(11,7,10,12)          55.9235         estimate D2E/DX2                !
 ! D4    D(11,7,10,27)         178.3437         estimate D2E/DX2                !
 ! D5    D(11,7,10,28)         -63.4981         estimate D2E/DX2                !
 ! D6    D(14,7,10,12)        -137.4836         estimate D2E/DX2                !
 ! D7    D(14,7,10,27)         -15.0635         estimate D2E/DX2                !
 ! D8    D(14,7,10,28)         103.0947         estimate D2E/DX2                !
 ! D9    D(10,7,11,13)         -55.1496         estimate D2E/DX2                !
 ! D10   D(10,7,11,29)          66.0696         estimate D2E/DX2                !
 ! D11   D(10,7,11,30)        -174.5578         estimate D2E/DX2                !
 ! D12   D(14,7,11,13)         138.349          estimate D2E/DX2                !
 ! D13   D(14,7,11,29)        -100.4319         estimate D2E/DX2                !
 ! D14   D(14,7,11,30)          18.9408         estimate D2E/DX2                !
 ! D15   D(10,7,14,16)          51.3986         estimate D2E/DX2                !
 ! D16   D(10,7,14,18)        -129.1378         estimate D2E/DX2                !
 ! D17   D(11,7,14,16)        -143.2891         estimate D2E/DX2                !
 ! D18   D(11,7,14,18)          36.1745         estimate D2E/DX2                !
 ! D19   D(13,8,12,10)          57.4687         estimate D2E/DX2                !
 ! D20   D(13,8,12,31)         -63.6183         estimate D2E/DX2                !
 ! D21   D(13,8,12,32)         177.9862         estimate D2E/DX2                !
 ! D22   D(17,8,12,10)        -176.8492         estimate D2E/DX2                !
 ! D23   D(17,8,12,31)          62.0638         estimate D2E/DX2                !
 ! D24   D(17,8,12,32)         -56.3317         estimate D2E/DX2                !
 ! D25   D(12,8,13,11)         -58.1318         estimate D2E/DX2                !
 ! D26   D(12,8,13,33)        -178.2117         estimate D2E/DX2                !
 ! D27   D(12,8,13,34)          63.554          estimate D2E/DX2                !
 ! D28   D(17,8,13,11)         176.2126         estimate D2E/DX2                !
 ! D29   D(17,8,13,33)          56.1327         estimate D2E/DX2                !
 ! D30   D(17,8,13,34)         -62.1016         estimate D2E/DX2                !
 ! D31   D(12,8,17,35)         176.1315         estimate D2E/DX2                !
 ! D32   D(12,8,17,36)          58.3408         estimate D2E/DX2                !
 ! D33   D(12,8,17,37)         -62.5964         estimate D2E/DX2                !
 ! D34   D(13,8,17,35)         -58.6185         estimate D2E/DX2                !
 ! D35   D(13,8,17,36)        -176.4092         estimate D2E/DX2                !
 ! D36   D(13,8,17,37)          62.6537         estimate D2E/DX2                !
 ! D37   D(21,9,15,16)           8.017          estimate D2E/DX2                !
 ! D38   D(21,9,15,19)        -171.8371         estimate D2E/DX2                !
 ! D39   D(23,9,15,16)        -172.7472         estimate D2E/DX2                !
 ! D40   D(23,9,15,19)           7.3987         estimate D2E/DX2                !
 ! D41   D(15,9,21,25)         -87.4238         estimate D2E/DX2                !
 ! D42   D(15,9,21,39)          36.1335         estimate D2E/DX2                !
 ! D43   D(15,9,21,40)         152.2502         estimate D2E/DX2                !
 ! D44   D(23,9,21,25)          93.3267         estimate D2E/DX2                !
 ! D45   D(23,9,21,39)        -143.116          estimate D2E/DX2                !
 ! D46   D(23,9,21,40)         -26.9992         estimate D2E/DX2                !
 ! D47   D(15,9,23,24)          -3.5065         estimate D2E/DX2                !
 ! D48   D(15,9,23,41)         176.3419         estimate D2E/DX2                !
 ! D49   D(21,9,23,24)         175.784          estimate D2E/DX2                !
 ! D50   D(21,9,23,41)          -4.3677         estimate D2E/DX2                !
 ! D51   D(7,10,12,8)          -55.5605         estimate D2E/DX2                !
 ! D52   D(7,10,12,31)          66.9843         estimate D2E/DX2                !
 ! D53   D(7,10,12,32)        -175.3774         estimate D2E/DX2                !
 ! D54   D(27,10,12,8)        -177.7384         estimate D2E/DX2                !
 ! D55   D(27,10,12,31)        -55.1937         estimate D2E/DX2                !
 ! D56   D(27,10,12,32)         62.4446         estimate D2E/DX2                !
 ! D57   D(28,10,12,8)          63.829          estimate D2E/DX2                !
 ! D58   D(28,10,12,31)       -173.6262         estimate D2E/DX2                !
 ! D59   D(28,10,12,32)        -55.9879         estimate D2E/DX2                !
 ! D60   D(7,11,13,8)           55.5601         estimate D2E/DX2                !
 ! D61   D(7,11,13,33)         175.4071         estimate D2E/DX2                !
 ! D62   D(7,11,13,34)         -67.5456         estimate D2E/DX2                !
 ! D63   D(29,11,13,8)         -66.5378         estimate D2E/DX2                !
 ! D64   D(29,11,13,33)         53.3092         estimate D2E/DX2                !
 ! D65   D(29,11,13,34)        170.3565         estimate D2E/DX2                !
 ! D66   D(30,11,13,8)         175.0867         estimate D2E/DX2                !
 ! D67   D(30,11,13,33)        -65.0662         estimate D2E/DX2                !
 ! D68   D(30,11,13,34)         51.981          estimate D2E/DX2                !
 ! D69   D(7,14,16,1)            3.2366         estimate D2E/DX2                !
 ! D70   D(7,14,16,15)        -177.1274         estimate D2E/DX2                !
 ! D71   D(18,14,16,1)        -176.2745         estimate D2E/DX2                !
 ! D72   D(18,14,16,15)          3.3615         estimate D2E/DX2                !
 ! D73   D(7,14,18,2)            1.4311         estimate D2E/DX2                !
 ! D74   D(7,14,18,20)         177.879          estimate D2E/DX2                !
 ! D75   D(16,14,18,2)        -179.0745         estimate D2E/DX2                !
 ! D76   D(16,14,18,20)         -2.6266         estimate D2E/DX2                !
 ! D77   D(9,15,16,1)           -1.4661         estimate D2E/DX2                !
 ! D78   D(9,15,16,14)         178.9131         estimate D2E/DX2                !
 ! D79   D(19,15,16,1)         178.3893         estimate D2E/DX2                !
 ! D80   D(19,15,16,14)         -1.2315         estimate D2E/DX2                !
 ! D81   D(9,15,19,20)         178.0508         estimate D2E/DX2                !
 ! D82   D(9,15,19,22)          -4.2657         estimate D2E/DX2                !
 ! D83   D(16,15,19,20)         -1.8133         estimate D2E/DX2                !
 ! D84   D(16,15,19,22)        175.8702         estimate D2E/DX2                !
 ! D85   D(2,18,20,19)         176.2234         estimate D2E/DX2                !
 ! D86   D(2,18,20,38)          -0.2014         estimate D2E/DX2                !
 ! D87   D(14,18,20,19)         -0.1893         estimate D2E/DX2                !
 ! D88   D(14,18,20,38)       -176.6141         estimate D2E/DX2                !
 ! D89   D(15,19,20,18)          2.5179         estimate D2E/DX2                !
 ! D90   D(15,19,20,38)        179.0769         estimate D2E/DX2                !
 ! D91   D(22,19,20,18)       -175.2945         estimate D2E/DX2                !
 ! D92   D(22,19,20,38)          1.2645         estimate D2E/DX2                !
 ! D93   D(15,19,22,4)         177.255          estimate D2E/DX2                !
 ! D94   D(15,19,22,24)         -2.6757         estimate D2E/DX2                !
 ! D95   D(20,19,22,4)          -5.012          estimate D2E/DX2                !
 ! D96   D(20,19,22,24)        175.0573         estimate D2E/DX2                !
 ! D97   D(9,21,25,3)          -66.0898         estimate D2E/DX2                !
 ! D98   D(9,21,25,42)          53.4518         estimate D2E/DX2                !
 ! D99   D(9,21,25,43)         175.8274         estimate D2E/DX2                !
 ! D100  D(39,21,25,3)         170.1452         estimate D2E/DX2                !
 ! D101  D(39,21,25,42)        -70.3132         estimate D2E/DX2                !
 ! D102  D(39,21,25,43)         52.0623         estimate D2E/DX2                !
 ! D103  D(40,21,25,3)          53.1159         estimate D2E/DX2                !
 ! D104  D(40,21,25,42)        172.6574         estimate D2E/DX2                !
 ! D105  D(40,21,25,43)        -64.967          estimate D2E/DX2                !
 ! D106  D(4,22,24,23)        -173.2986         estimate D2E/DX2                !
 ! D107  D(4,22,24,26)           4.3416         estimate D2E/DX2                !
 ! D108  D(19,22,24,23)          6.6278         estimate D2E/DX2                !
 ! D109  D(19,22,24,26)       -175.732          estimate D2E/DX2                !
 ! D110  D(9,23,24,22)          -3.9456         estimate D2E/DX2                !
 ! D111  D(9,23,24,26)         178.1396         estimate D2E/DX2                !
 ! D112  D(41,23,24,22)        176.2094         estimate D2E/DX2                !
 ! D113  D(41,23,24,26)         -1.7054         estimate D2E/DX2                !
 ! D114  D(22,24,26,5)           6.4691         estimate D2E/DX2                !
 ! D115  D(22,24,26,6)        -174.3641         estimate D2E/DX2                !
 ! D116  D(23,24,26,5)        -175.7772         estimate D2E/DX2                !
 ! D117  D(23,24,26,6)           3.3896         estimate D2E/DX2                !
 --------------------------------------------------------------------------------
 Trust Radius=3.00D-01 FncErr=1.00D-07 GrdErr=1.00D-06
 Number of steps in this run=    255 maximum allowed number of steps=    264.
 GradGradGradGradGradGradGradGradGradGradGradGradGradGradGradGradGradGrad

                          Input orientation:                          
 ---------------------------------------------------------------------
 Center     Atomic      Atomic             Coordinates (Angstroms)
 Number     Number       Type             X           Y           Z
 ---------------------------------------------------------------------
      1          9           0       -8.065990    9.828740    7.628390
      2          9           0       -8.925270    5.224650    6.908270
      3          9           0       -4.741150   11.812200    5.895200
      4          8           0       -3.980650    5.454770    6.875470
      5          8           0       -1.468960    6.550840    6.416010
      6          8           0       -1.235230    8.751740    6.902230
      7          7           0       -9.898800    7.863410    7.239140
      8          7           0      -12.505800    8.869820    7.729360
      9          7           0       -5.227110    9.348910    7.499530
     10          6           0      -10.462300    8.909520    6.386730
     11          6           0      -10.909100    6.993580    7.831140
     12          6           0      -11.475600    9.735730    7.165170
     13          6           0      -11.919100    7.849130    8.588670
     14          6           0       -8.552460    7.557350    7.239250
     15          6           0       -6.194750    8.337590    7.356810
     16          6           0       -7.579140    8.559450    7.402770
     17          6           0      -13.534500    9.633180    8.420060
     18          6           0       -8.035640    6.248070    7.091140
     19          6           0       -5.754350    7.006950    7.156510
     20          6           0       -6.693920    5.975790    7.052460
     21          6           0       -5.533580   10.739100    7.882820
     22          6           0       -4.322900    6.644190    6.998650
     23          6           0       -3.921230    9.041890    7.289770
     24          6           0       -3.424510    7.792300    7.007800
     25          6           0       -5.875840   11.647500    6.719260
     26          6           0       -1.965680    7.760180    6.784210
     27          1           0       -9.664460    9.547970    5.994240
     28          1           0      -10.972400    8.433810    5.526100
     29          1           0      -11.428500    6.397840    7.057130
     30          1           0      -10.428500    6.299430    8.529230
     31          1           0      -10.942300   10.306800    7.961720
     32          1           0      -11.955600   10.466900    6.496530
     33          1           0      -12.725600    7.201680    8.965180
     34          1           0      -11.413100    8.305510    9.471840
     35          1           0      -14.326300    8.959070    8.771130
     36          1           0      -13.994500   10.345300    7.723330
     37          1           0      -13.129700   10.196200    9.290670
     38          1           0       -6.321210    4.965130    6.883090
     39          1           0       -6.352150   10.752700    8.609500
     40          1           0       -4.641150   11.132400    8.387030
     41          1           0       -3.220800    9.874940    7.352680
     42          1           0       -6.682280   11.244300    6.091410
     43          1           0       -6.163170   12.642700    7.094690
     44          1           0       -0.502219    6.704080    6.298630
 ---------------------------------------------------------------------
                    Distance matrix (angstroms):
                    1          2          3          4          5
     1  F    0.000000
     2  F    4.738626   0.000000
     3  F    4.241771   7.869497   0.000000
     4  O    6.032289   4.950081   6.477361   0.000000
     5  O    7.465608   7.589312   6.217747   2.778679   0.000000
     6  O    6.953166   8.460326   4.761512   4.290461   2.266054
     7  N    2.715369   2.832012   6.633285   6.399867   8.571032
     8  N    4.543307   5.175099   8.503619   9.223333  11.354047
     9  N    2.882027   5.570951   2.979569   4.136114   4.809044
    10  C    2.851138   4.026504   6.434183   7.361111   9.297548
    11  C    4.020263   2.813607   8.062913   7.161331   9.555881
    12  C    3.442189   5.188451   7.160822   8.636250  10.527944
    13  C    4.437054   4.321418   8.630392   8.466818  10.752276
    14  C    2.355270   2.385377   5.868245   5.045258   7.201858
    15  C    2.408075   4.165012   4.040071   3.666685   5.139131
    16  C    1.378051   3.630081   4.572454   4.781863   6.507112
    17  C    5.528977   6.554819   9.404576  10.541391  12.613259
    18  C    3.620878   1.368310   6.575977   4.137485   6.608234
    19  C    3.678158   3.645950   5.070296   2.373659   4.372750
    20  C    4.130314   2.358797   6.262287   2.768505   5.294899
    21  C    2.703071   6.546943   2.393767   5.599151   6.017823
    22  C    4.954660   4.817164   5.301025   1.243796   2.914302
    23  C    4.232355   6.305337   3.208070   3.611455   3.603112
    24  C    5.106423   6.071334   4.373902   2.406418   2.390735
    25  C    2.988505   7.112507   1.411992   6.478121   6.744516
    26  C    6.496565   7.408117   4.991236   3.063225   1.358236
    27  H    2.303125   4.480284   5.419920   7.059501   8.736527
    28  H    3.848723   4.049672   7.097762   7.718811   9.728972
    29  H    4.837756   2.768518   8.682513   7.509517   9.981327
    30  H    4.341543   2.458122   8.347137   6.709929   9.208814
    31  H    2.934759   5.568340   6.707533   8.554923  10.307309
    32  H    4.100905   6.069070   7.363404   9.426817  11.194268
    33  H    5.513657   4.752056   9.717670   9.159298  11.560009
    34  H    4.113597   4.717297   8.342910   8.373122  10.550018
    35  H    6.422901   6.825486  10.406076  11.086303  13.291251
    36  H    5.951729   7.251377   9.545593  11.176464  13.152801
    37  H    5.342224   6.933208   9.192847  10.583925  12.550903
    38  H    5.220578   2.617081   7.096118   2.391240   5.126107
    39  H    2.180258   6.330440   3.329457   6.057965   6.805334
    40  H    3.742271   7.445933   2.584830   5.912407   5.910871
    41  H    4.853248   7.373173   2.861588   4.510322   3.872459
    42  H    2.506147   6.475681   2.031993   6.436786   7.022296
    43  H    3.438594   7.917791   2.037314   7.515171   7.720555
    44  H    8.291103   8.573690   6.650126   3.740722   0.985824
                    6          7          8          9         10
     6  O    0.000000
     7  N    8.715508   0.000000
     8  N   11.301497   2.837186   0.000000
     9  N    4.080256   4.909094   7.298060   0.000000
    10  C    9.242806   1.462355   2.445429   5.370158   0.000000
    11  C    9.876121   1.458689   2.465783   6.159753   2.440651
    12  C   10.290897   2.448949   1.459254   6.269374   1.521634
    13  C   10.853749   2.429619   1.457545   6.943940   2.845212
    14  C    7.421725   1.380690   4.194244   3.786210   2.490511
    15  C    4.997500   3.736132   6.344400   1.406934   4.413631
    16  C    6.366530   2.427358   4.947218   2.482872   3.076930
    17  C   12.423880   4.212478   1.455338   8.363068   3.754534
    18  C    7.249112   2.470343   5.221420   4.203550   3.669903
    19  C    4.850917   4.232826   7.027127   2.424958   5.135867
    20  C    6.125828   3.724139   6.527752   3.705313   4.821893
    21  C    4.836008   5.266789   7.220084   1.474267   5.466071
    22  C    3.739622   5.712705   8.511593   2.895511   6.572549
    23  C    2.729280   6.092842   8.597540   1.357786   6.604438
    24  C    2.392617   6.478812   9.173414   2.431913   7.152929
    25  C    5.473040   5.547416   7.258938   2.512606   5.351890
    26  C    1.237205   7.946824  10.640429   3.697658   8.583212
    27  H    8.515301   2.107708   3.397608   4.689946   1.094630
    28  H    9.839070   2.100590   2.719517   6.143305   1.107784
    29  H   10.462676   2.126266   2.779056   6.881989   2.773358
    30  H    9.652832   2.095459   3.400275   6.116704   3.376984
    31  H    9.887767   2.753392   2.136220   5.813310   2.159487
    32  H   10.864285   3.400008   2.091233   6.894091   2.160424
    33  H   11.776547   3.377558   2.087643   7.936377   3.832447
    34  H   10.506715   2.733771   2.132762   6.576105   3.284319
    35  H   13.225426   4.811468   2.099398   9.195880   4.540739
    36  H   12.884588   4.813416   2.096021   8.826665   4.040347
    37  H   12.217591   4.482120   2.141547   8.147209   4.147702
    38  H    6.340818   4.618003   7.362875   4.560107   5.740489
    39  H    5.753389   4.775417   6.495175   2.113853   5.023082
    40  H    4.412762   6.296573   8.210025   2.076498   6.544324
    41  H    2.325290   6.975301   9.346838   2.079315   7.369153
    42  H    6.044885   4.805591   6.498801   2.773594   4.452748
    43  H    6.281815   6.067735   7.407185   3.448066   5.737627
    44  H    2.257111   9.514428  12.281017   5.546339  10.201713
                   11         12         13         14         15
    11  C    0.000000
    12  C    2.878163   0.000000
    13  C    1.525096   2.404642   0.000000
    14  C    2.494378   3.646310   3.638727   0.000000
    15  C    4.925084   5.466159   5.875734   2.486240   0.000000
    16  C    3.704603   4.077069   4.554796   1.406519   1.402808
    17  C    3.769223   2.413366   2.412629   5.524862   7.528677
    18  C    3.059437   4.899243   4.459512   1.415363   2.797419
    19  C    5.198726   6.338692   6.384708   2.852929   1.415865
    20  C    4.405676   6.083939   5.759501   2.447528   2.433084
    21  C    6.551931   6.068721   7.044503   4.432985   2.545797
    22  C    6.647792   7.794002   7.853808   4.333697   2.549452
    23  C    7.301985   7.587190   8.189978   4.863610   2.381056
    24  C    7.571983   8.283824   8.640627   5.138545   2.844886
    25  C    6.944707   5.933887   7.378570   4.915690   3.385805
    26  C    9.037063   9.720417  10.116054   6.605594   4.306542
    27  H    3.383525   2.164846   3.834126   2.597915   3.919248
    28  H    2.718727   2.152848   3.258439   3.091791   5.117294
    29  H    1.106243   3.339970   2.166228   3.106322   5.589685
    30  H    1.095514   3.842556   2.151044   2.601142   4.842861
    31  H    3.315958   1.115805   2.717967   3.713862   5.175223
    32  H    3.865268   1.100949   3.351284   4.538554   6.201728
    33  H    2.151517   3.350216   1.100633   4.529948   6.821228
    34  H    2.160341   2.714804   1.115486   3.705059   5.630769
    35  H    4.052652   3.362856   2.657042   6.135854   8.276995
    36  H    4.556901   2.651033   3.359608   6.133743   8.062341
    37  H    4.161498   2.732367   2.732598   5.667714   7.435575
    38  H    5.105109   7.028935   6.524020   3.438740   3.407916
    39  H    5.958408   5.419415   6.278701   4.114512   2.725209
    40  H    7.531669   7.081902   7.986806   5.421875   3.359463
    41  H    8.224422   8.258103   9.016208   5.814696   3.347811
    42  H    6.241898   5.138547   6.722185   4.290537   3.207473
    43  H    7.414767   6.056183   7.638129   5.620533   4.313198
    44  H   10.523097  11.417394  11.700453   8.149799   6.016063
                   16         17         18         19         20
    16  C    0.000000
    17  C    6.136293   0.000000
    18  C    2.376549   6.592606   0.000000
    19  C    2.408476   8.308091   2.405090   0.000000
    20  C    2.753476   7.876571   1.369615   1.398896   0.000000
    21  C    3.027480   8.094838   5.201578   3.808570   4.972425
    22  C    3.799294   9.788158   3.734957   1.485114   2.464019
    23  C    3.691317   9.697533   4.977274   2.742092   4.140664
    24  C    4.243285  10.372811   4.863549   2.463137   3.740420
    25  C    3.592279   8.099709   5.827253   4.662687   5.740085
    26  C    5.703717  11.833078   6.262994   3.880719   5.060856
    27  H    2.703643   4.568268   3.839998   4.805894   4.764914
    28  H    3.879676   4.046956   3.981378   5.649975   5.164981
    29  H    4.428272   4.093927   3.396334   5.707615   4.753356
    30  H    3.807290   4.557745   2.792225   4.922664   4.028980
    31  H    3.830992   2.717230   5.067531   6.200984   6.134585
    32  H    4.859325   2.624497   5.789488   7.131783   6.940058
    33  H    5.547136   2.619860   5.139759   7.204688   6.445345
    34  H    4.364033   2.714643   4.616062   6.250477   5.792379
    35  H    6.896106   1.097553   7.052963   8.938462   8.372993
    36  H    6.666998   1.097337   7.259130   8.908756   8.534703
    37  H    6.087022   1.113021   6.809927   8.313949   8.015030
    38  H    3.843383   8.728374   2.151393   2.136614   1.090428
    39  H    2.787839   7.271545   5.042940   4.061919   5.035876
    40  H    4.027484   9.018893   6.087575   4.446654   5.708377
    41  H    4.552818  10.371603   6.033678   3.831804   5.230303
    42  H    3.119686   7.414259   5.271941   4.466612   5.355460
    43  H    4.332761   8.071575   6.663141   5.650897   6.688136
    44  H    7.398941  13.524808   7.588705   5.330344   6.279795
                   21         22         23         24         25
    21  C    0.000000
    22  C    4.360710   0.000000
    23  C    2.414933   2.448480   0.000000
    24  C    3.727931   1.457856   1.373941   0.000000
    25  C    1.515323   5.246217   3.306839   4.577646   0.000000
    26  C    4.776067   2.616850   2.392185   1.476214   5.514057
    27  H    4.695710   6.162227   5.909247   6.560995   4.391733
    28  H    6.359973   7.041803   7.293784   7.718654   6.142179
    29  H    7.367387   7.110110   7.962677   8.124704   7.648864
    30  H    6.639937   6.303958   7.169513   7.321153   7.252900
    31  H    5.426542   7.626183   7.165678   7.984350   5.386112
    32  H    6.575579   8.551219   8.198231   8.955131   6.197331
    33  H    8.087645   8.647740   9.149333   9.523153   8.469279
    34  H    6.558666   7.690747   7.837844   8.375706   7.029000
    35  H    9.014961  10.419614  10.510317  11.104941   9.102093
    36  H    8.471581  10.380907  10.166495  10.897453   8.283509
    37  H    7.744535   9.768821   9.493785  10.255776   7.831788
    38  H    5.912576   2.612631   4.748185   4.049607   6.699199
    39  H    1.094671   4.857216   3.252373   4.460996   2.144888
    40  H    1.097882   4.708812   2.468298   3.812972   2.138047
    41  H    2.525227   3.431866   1.090198   2.120809   3.254601
    42  H    2.187210   5.248883   3.729621   4.834164   1.098686
    43  H    2.154350   6.275184   4.246196   5.570834   1.101785
    44  H    6.641208   3.884742   4.258797   3.197957   7.313695
                   26         27         28         29         30
    26  C    0.000000
    27  H    7.943013   0.000000
    28  H    9.119080   1.780790   0.000000
    29  H    9.564278   3.763627   2.587905   0.000000
    30  H    8.763459   4.190817   3.724271   1.782348   0.000000
    31  H    9.404866   2.465700   3.072660   4.041614   4.079837
    32  H   10.354110   2.519137   2.458022   4.141178   4.881773
    33  H   10.992926   4.868484   4.052052   2.443211   2.506148
    34  H    9.837402   4.085970   3.972347   3.077380   2.425347
    35  H   12.576570   5.458083   4.696250   4.230241   4.724939
    36  H   12.339259   4.730194   4.196987   4.755062   5.452971
    37  H   11.698371   4.826442   4.683156   4.723380   4.802196
    38  H    5.176169   5.741933   5.958752   5.307293   4.621684
    39  H    5.614978   4.388890   6.019246   6.866148   6.037772
    40  H    4.593369   5.785284   7.453324   8.381695   7.541302
    41  H    2.524023   6.593408   8.093241   8.918739   8.131389
    42  H    5.904691   3.432255   5.159802   6.851817   6.665498
    43  H    6.446264   4.800768   6.580572   8.168438   7.777404
    44  H    1.868918   9.598282  10.640181  10.956857  10.181865
                   31         32         33         34         35
    31  H    0.000000
    32  H    1.788628   0.000000
    33  H    3.718718   4.165188   0.000000
    34  H    2.550936   3.717309   1.788240   0.000000
    35  H    3.731351   3.614910   2.385019   3.066736   0.000000
    36  H    3.061738   2.382633   3.610353   3.725809   1.769070
    37  H    2.561847   3.042862   3.039143   2.560126   1.797850
    38  H    7.145023   7.884494   7.096018   6.617183   9.143179
    39  H    4.657029   5.995413   7.304596   5.687318   8.174980
    40  H    6.369223   7.584066   9.007949   7.418047   9.933430
    41  H    7.757512   8.796598  10.004384   8.606261  11.233118
    42  H    4.746023   5.345688   7.818123   6.514941   8.416307
    43  H    5.389643   6.216442   8.727481   7.212754   9.111327
    44  H   11.168740  12.057276  12.520748  11.475241  14.223342
                   36         37         38         39         40
    36  H    0.000000
    37  H    1.796292   0.000000
    38  H    9.409124   8.917178   0.000000
    39  H    7.704336   6.834389   6.039654   0.000000
    40  H    9.409845   8.587696   6.566556   1.766688   0.000000
    41  H   10.790330  10.101748   5.825744   3.486461   2.160666
    42  H    7.545855   7.273445   6.339172   2.586781   3.073858
    43  H    8.185534   7.703261   7.682111   2.429498   2.503536
    44  H   14.047416  13.438768   6.101327   7.480183   6.411098
                   41         42         43         44
    41  H    0.000000
    42  H    3.930368   0.000000
    43  H    4.047789   1.797656   0.000000
    44  H    4.307674   7.671355   8.243014   0.000000
 Stoichiometry    C17H18F3N3O3
 Framework group  C1[X(C17H18F3N3O3)]
 Deg. of freedom   126
 Full point group                 C1      NOp   1
 Largest Abelian subgroup         C1      NOp   1
 Largest concise Abelian subgroup C1      NOp   1
                         Standard orientation:                         
 ---------------------------------------------------------------------
 Center     Atomic      Atomic             Coordinates (Angstroms)
 Number     Number       Type             X           Y           Z
 ---------------------------------------------------------------------
      1          9           0        1.074483    1.457162   -0.317941
      2          9           0        1.616492   -3.176264    0.514025
      3          9           0       -2.307014    3.624629    1.045947
      4          8           0       -3.286158   -2.696682    0.026873
      5          8           0       -5.772534   -1.470359    0.214298
      6          8           0       -5.840974    0.734083   -0.306040
      7          7           0        2.753353   -0.593743    0.272323
      8          7           0        5.445478    0.274469    0.052556
      9          7           0       -1.783190    1.122575   -0.484793
     10          6           0        3.277677    0.431866    1.173263
     11          6           0        3.773988   -1.519844   -0.205605
     12          6           0        4.407782    1.197356    0.500763
     13          6           0        4.900138   -0.724659   -0.857821
     14          6           0        1.400467   -0.831485    0.132749
     15          6           0       -0.888917    0.065355   -0.235746
     16          6           0        0.502252    0.216587   -0.137527
     17          6           0        6.578491    0.977374   -0.530723
     18          6           0        0.804513   -2.111333    0.233163
     19          6           0       -1.415517   -1.239109   -0.075298
     20          6           0       -0.546102   -2.315150    0.132460
     21          6           0       -1.367445    2.491265   -0.841595
     22          6           0       -2.872342   -1.527456   -0.066384
     23          6           0       -3.117859    0.884127   -0.411409
     24          6           0       -3.704767   -0.335661   -0.176102
     25          6           0       -1.102420    3.393908    0.346345
     26          6           0       -5.178686   -0.291710   -0.106539
     27          1           0        2.477023    1.113999    1.476356
     28          1           0        3.670022   -0.059533    2.085281
     29          1           0        4.178459   -2.132529    0.621917
     30          1           0        3.333943   -2.196457   -0.946352
     31          1           0        3.990594    1.785859   -0.350495
     32          1           0        4.852206    1.910647    1.211953
     33          1           0        5.707261   -1.416041   -1.144064
     34          1           0        4.513226   -0.253017   -1.791717
     35          1           0        7.366990    0.260387   -0.793059
     36          1           0        6.999140    1.672957    0.206411
     37          1           0        6.296252    1.550547   -1.442112
     38          1           0       -0.985824   -3.303812    0.267459
     39          1           0       -0.477845    2.455615   -1.478500
     40          1           0       -2.180975    2.923545   -1.438794
     41          1           0       -3.764219    1.750709   -0.552072
     42          1           0       -0.387716    2.957430    1.057539
     43          1           0       -0.726771    4.369185   -0.002441
     44          1           0       -6.737105   -1.267277    0.228802
 ---------------------------------------------------------------------
 Rotational constants (GHZ):      0.3846011      0.1100171      0.0886595
 Standard basis: LANL2DZ (5D, 7F)
 There are   270 symmetry adapted cartesian basis functions of A   symmetry.
 There are   270 symmetry adapted basis functions of A   symmetry.
   270 basis functions,   722 primitive gaussians,   270 cartesian basis functions
    96 alpha electrons       96 beta electrons
       nuclear repulsion energy      2431.9889526675 Hartrees.
 NAtoms=   44 NActive=   44 NUniq=   44 SFac= 1.00D+00 NAtFMM=   60 NAOKFM=F Big=F
 Integral buffers will be    131072 words long.
 Raffenetti 2 integral format.
 Two-electron integral symmetry is turned on.
 One-electron integrals computed using PRISM.
 PrsmSu:  requested number of processors reduced to:   8 ShMem   1 Linda.
   1 Symmetry operations used in ECPInt.
 ECPInt:  NShTT=   13861 NPrTT=  107735 LenC2=   12112 LenP2D=   51290.
 LDataN:  DoStor=T MaxTD1= 2 Len=   12
 Number of processors reduced to   8 by ecpmxn.
 NBasis=   270 RedAO= T EigKep=  1.72D-04  NBF=   270
 NBsUse=   270 1.00D-06 EigRej= -1.00D+00 NBFU=   270
 ExpMin= 1.15D-01 ExpMax= 1.00D+04 ExpMxC= 3.50D+02 IAcc=3 IRadAn=         5 AccDes= 0.00D+00
 Harris functional with IExCor= 1009 and IRadAn=       5 diagonalized for initial guess.
 HarFok:  IExCor= 1009 AccDes= 0.00D+00 IRadAn=         5 IDoV= 1 UseB2=F ITyADJ=14
 ICtDFT=  3500011 ScaDFX=  1.000000  1.000000  1.000000  1.000000
 FoFCou: FMM=F IPFlag=           0 FMFlag=      100000 FMFlg1=           0
         NFxFlg=           0 DoJE=T BraDBF=F KetDBF=T FulRan=T
         wScrn=  0.000000 ICntrl=     500 IOpCl=  0 I1Cent=   200000004 NGrid=           0
         NMat0=    1 NMatS0=      1 NMatT0=    0 NMatD0=    1 NMtDS0=    0 NMtDT0=    0
 Petite list used in FoFCou.
 Requested convergence on RMS density matrix=1.00D-08 within 128 cycles.
 Requested convergence on MAX density matrix=1.00D-06.
 Requested convergence on             energy=1.00D-06.
 No special actions if energy rises.
 Integral accuracy reduced to 1.0D-05 until final iterations.
 EnCoef did     1 forward-backward iterations
 Initial convergence to 1.0D-05 achieved.  Increase integral accuracy.
 SCF Done:  E(RM06) =  -1347.15122897     A.U. after   19 cycles
            NFock= 19  Conv=0.38D-08     -V/T= 2.0046

 **********************************************************************

            Population analysis using the SCF density.

 **********************************************************************

 Orbital symmetries:
       Occupied  (A) (A) (A) (A) (A) (A) (A) (A) (A) (A) (A) (A)
                 (A) (A) (A) (A) (A) (A) (A) (A) (A) (A) (A) (A)
                 (A) (A) (A) (A) (A) (A) (A) (A) (A) (A) (A) (A)
                 (A) (A) (A) (A) (A) (A) (A) (A) (A) (A) (A) (A)
                 (A) (A) (A) (A) (A) (A) (A) (A) (A) (A) (A) (A)
                 (A) (A) (A) (A) (A) (A) (A) (A) (A) (A) (A) (A)
                 (A) (A) (A) (A) (A) (A) (A) (A) (A) (A) (A) (A)
                 (A) (A) (A) (A) (A) (A) (A) (A) (A) (A) (A) (A)
       Virtual   (A) (A) (A) (A) (A) (A) (A) (A) (A) (A) (A) (A)
                 (A) (A) (A) (A) (A) (A) (A) (A) (A) (A) (A) (A)
                 (A) (A) (A) (A) (A) (A) (A) (A) (A) (A) (A) (A)
                 (A) (A) (A) (A) (A) (A) (A) (A) (A) (A) (A) (A)
                 (A) (A) (A) (A) (A) (A) (A) (A) (A) (A) (A) (A)
                 (A) (A) (A) (A) (A) (A) (A) (A) (A) (A) (A) (A)
                 (A) (A) (A) (A) (A) (A) (A) (A) (A) (A) (A) (A)
                 (A) (A) (A) (A) (A) (A) (A) (A) (A) (A) (A) (A)
                 (A) (A) (A) (A) (A) (A) (A) (A) (A) (A) (A) (A)
                 (A) (A) (A) (A) (A) (A) (A) (A) (A) (A) (A) (A)
                 (A) (A) (A) (A) (A) (A) (A) (A) (A) (A) (A) (A)
                 (A) (A) (A) (A) (A) (A) (A) (A) (A) (A) (A) (A)
                 (A) (A) (A) (A) (A) (A) (A) (A) (A) (A) (A) (A)
                 (A) (A) (A) (A) (A) (A) (A) (A) (A) (A) (A) (A)
                 (A) (A) (A) (A) (A) (A)
 The electronic state is 1-A.
 Alpha  occ. eigenvalues --  -24.83747 -24.81428 -24.79131 -19.26651 -19.21842
 Alpha  occ. eigenvalues --  -19.19647 -14.49912 -14.43510 -14.40182 -10.40527
 Alpha  occ. eigenvalues --  -10.37616 -10.36617 -10.35986 -10.35302 -10.35003
 Alpha  occ. eigenvalues --  -10.34610 -10.34028 -10.33464 -10.29810 -10.29443
 Alpha  occ. eigenvalues --  -10.29146 -10.28550 -10.28471 -10.28430 -10.27983
 Alpha  occ. eigenvalues --  -10.27439  -1.29632  -1.27502  -1.24289  -1.14526
 Alpha  occ. eigenvalues --   -1.05821  -1.05114  -1.04282  -0.99830  -0.95203
 Alpha  occ. eigenvalues --   -0.90856  -0.85670  -0.82399  -0.81201  -0.79800
 Alpha  occ. eigenvalues --   -0.79015  -0.75183  -0.71280  -0.70113  -0.69453
 Alpha  occ. eigenvalues --   -0.67797  -0.66231  -0.64561  -0.64482  -0.60890
 Alpha  occ. eigenvalues --   -0.59355  -0.58826  -0.57423  -0.55550  -0.54763
 Alpha  occ. eigenvalues --   -0.54285  -0.53778  -0.52969  -0.52158  -0.51065
 Alpha  occ. eigenvalues --   -0.50349  -0.50015  -0.49151  -0.49039  -0.48841
 Alpha  occ. eigenvalues --   -0.48491  -0.48032  -0.47639  -0.47527  -0.46670
 Alpha  occ. eigenvalues --   -0.46221  -0.45127  -0.44878  -0.44162  -0.42991
 Alpha  occ. eigenvalues --   -0.42350  -0.41284  -0.40932  -0.40660  -0.40356
 Alpha  occ. eigenvalues --   -0.39755  -0.39546  -0.38392  -0.37935  -0.37791
 Alpha  occ. eigenvalues --   -0.37545  -0.36947  -0.36350  -0.33226  -0.31733
 Alpha  occ. eigenvalues --   -0.29819  -0.29552  -0.25522  -0.25222  -0.23831
 Alpha  occ. eigenvalues --   -0.22823
 Alpha virt. eigenvalues --   -0.06267  -0.05553  -0.01049   0.01939   0.04855
 Alpha virt. eigenvalues --    0.07149   0.08594   0.09840   0.09993   0.10364
 Alpha virt. eigenvalues --    0.10506   0.11246   0.11974   0.12464   0.12893
 Alpha virt. eigenvalues --    0.14505   0.15202   0.15584   0.15612   0.16159
 Alpha virt. eigenvalues --    0.16408   0.16794   0.17229   0.17569   0.18065
 Alpha virt. eigenvalues --    0.18944   0.19087   0.19583   0.20072   0.20473
 Alpha virt. eigenvalues --    0.20591   0.21317   0.21780   0.22278   0.22670
 Alpha virt. eigenvalues --    0.22908   0.23449   0.23765   0.24662   0.24928
 Alpha virt. eigenvalues --    0.25614   0.26145   0.26586   0.26815   0.27348
 Alpha virt. eigenvalues --    0.28273   0.28784   0.29719   0.30251   0.30371
 Alpha virt. eigenvalues --    0.30740   0.31798   0.32526   0.33086   0.33680
 Alpha virt. eigenvalues --    0.34929   0.35165   0.35284   0.36011   0.36087
 Alpha virt. eigenvalues --    0.36798   0.37128   0.37478   0.38032   0.38836
 Alpha virt. eigenvalues --    0.39095   0.39955   0.40021   0.40269   0.40353
 Alpha virt. eigenvalues --    0.41449   0.42283   0.43492   0.43865   0.43983
 Alpha virt. eigenvalues --    0.44747   0.44832   0.45770   0.46877   0.47473
 Alpha virt. eigenvalues --    0.49480   0.49531   0.50030   0.50495   0.52130
 Alpha virt. eigenvalues --    0.53158   0.53454   0.54236   0.55106   0.56253
 Alpha virt. eigenvalues --    0.56940   0.57598   0.59091   0.59756   0.60880
 Alpha virt. eigenvalues --    0.62483   0.64038   0.65337   0.66931   0.67359
 Alpha virt. eigenvalues --    0.68775   0.69460   0.70640   0.71625   0.72719
 Alpha virt. eigenvalues --    0.73945   0.75750   0.75809   0.79910   0.83348
 Alpha virt. eigenvalues --    0.84018   0.84843   0.86548   0.87203   0.87937
 Alpha virt. eigenvalues --    0.89223   0.90480   0.91399   0.92672   0.93495
 Alpha virt. eigenvalues --    0.95133   0.95924   0.96913   0.97309   0.98915
 Alpha virt. eigenvalues --    1.00406   1.01323   1.02638   1.03150   1.03690
 Alpha virt. eigenvalues --    1.04480   1.04634   1.06267   1.07075   1.07809
 Alpha virt. eigenvalues --    1.08042   1.08564   1.09599   1.10076   1.10617
 Alpha virt. eigenvalues --    1.14134   1.14436   1.15527   1.15995   1.16630
 Alpha virt. eigenvalues --    1.17428   1.18088   1.19725   1.20746   1.22805
 Alpha virt. eigenvalues --    1.24461   1.27788   1.30450   1.33001   1.34498
 Alpha virt. eigenvalues --    1.36360   1.39995   1.43199   1.45832   1.48041
 Alpha virt. eigenvalues --    1.50497   1.54236   1.57278   1.58049   1.73023
 Alpha virt. eigenvalues --    1.76661   1.78944   1.84360   1.88713   1.96072
 Alpha virt. eigenvalues --    2.01132   2.11407   2.18218   2.27224
          Condensed to atoms (all electrons):
               1          2          3          4          5          6
     1  F    9.095923  -0.000005   0.000010   0.000000   0.000000   0.000000
     2  F   -0.000005   9.047542   0.000000   0.000004   0.000000   0.000000
     3  F    0.000010   0.000000   9.126913   0.000000   0.000000   0.000001
     4  O    0.000000   0.000004   0.000000   7.784012  -0.004790   0.000017
     5  O    0.000000   0.000000   0.000000  -0.004790   8.058382  -0.085530
     6  O    0.000000   0.000000   0.000001   0.000017  -0.085530   7.884929
     7  N    0.000261   0.000969   0.000000   0.000000   0.000000   0.000000
     8  N    0.000001   0.000001   0.000000   0.000000   0.000000   0.000000
     9  N    0.003983   0.000000  -0.004382   0.000329  -0.000003   0.000776
    10  C   -0.000092  -0.000259   0.000000   0.000000   0.000000   0.000000
    11  C   -0.000015   0.011104   0.000000   0.000000   0.000000   0.000000
    12  C    0.000952  -0.000029   0.000000   0.000000   0.000000   0.000000
    13  C   -0.000140   0.000656   0.000000   0.000000   0.000000   0.000000
    14  C   -0.074011  -0.040197  -0.000001   0.000174   0.000000   0.000000
    15  C   -0.038627  -0.000765   0.001111  -0.007569  -0.000371  -0.000603
    16  C    0.274382   0.000574  -0.000121  -0.000312  -0.000004  -0.000022
    17  C    0.000002   0.000000   0.000000   0.000000   0.000000   0.000000
    18  C   -0.000025   0.290338   0.000000   0.002215   0.000001   0.000000
    19  C   -0.004242  -0.001915  -0.000061  -0.133167  -0.000422   0.000098
    20  C   -0.000404  -0.063251  -0.000001   0.031945   0.000165   0.000030
    21  C    0.007056   0.000000  -0.036168   0.000008   0.000000   0.000158
    22  C   -0.000156  -0.000050   0.000019   0.674479   0.006058  -0.003172
    23  C    0.001276   0.000000   0.008984   0.001513  -0.006246   0.001802
    24  C    0.000044  -0.000004   0.000221  -0.075606  -0.029617  -0.061193
    25  C   -0.004756   0.000000   0.258247   0.000000   0.000000   0.000014
    26  C    0.000000   0.000000   0.000044  -0.007340   0.253563   0.589465
    27  H    0.000125  -0.000004   0.000000   0.000000   0.000000   0.000000
    28  H    0.000170  -0.000001   0.000000   0.000000   0.000000   0.000000
    29  H   -0.000004  -0.001644   0.000000   0.000000   0.000000   0.000000
    30  H    0.000002  -0.002646   0.000000   0.000000   0.000000   0.000000
    31  H    0.000419   0.000000   0.000000   0.000000   0.000000   0.000000
    32  H   -0.000006   0.000000   0.000000   0.000000   0.000000   0.000000
    33  H    0.000000   0.000003   0.000000   0.000000   0.000000   0.000000
    34  H   -0.000010   0.000000   0.000000   0.000000   0.000000   0.000000
    35  H    0.000000   0.000000   0.000000   0.000000   0.000000   0.000000
    36  H    0.000000   0.000000   0.000000   0.000000   0.000000   0.000000
    37  H    0.000000   0.000000   0.000000   0.000000   0.000000   0.000000
    38  H    0.000000   0.000698   0.000000   0.012236   0.000000   0.000000
    39  H   -0.001601   0.000000   0.002589   0.000000   0.000000   0.000000
    40  H    0.000449   0.000000  -0.005023   0.000000   0.000000   0.000011
    41  H    0.000000   0.000000  -0.002142  -0.000060   0.000330   0.013377
    42  H    0.001735   0.000000  -0.041006   0.000000   0.000000   0.000000
    43  H   -0.000071   0.000000  -0.041949   0.000000   0.000000   0.000000
    44  H    0.000000   0.000000   0.000000   0.000280   0.248074   0.004316
               7          8          9         10         11         12
     1  F    0.000261   0.000001   0.003983  -0.000092  -0.000015   0.000952
     2  F    0.000969   0.000001   0.000000  -0.000259   0.011104  -0.000029
     3  F    0.000000   0.000000  -0.004382   0.000000   0.000000   0.000000
     4  O    0.000000   0.000000   0.000329   0.000000   0.000000   0.000000
     5  O    0.000000   0.000000  -0.000003   0.000000   0.000000   0.000000
     6  O    0.000000   0.000000   0.000776   0.000000   0.000000   0.000000
     7  N    6.897903  -0.015539  -0.000041   0.271887   0.285739  -0.052984
     8  N   -0.015539   6.712002   0.000000  -0.050347  -0.050608   0.300040
     9  N   -0.000041   0.000000   6.658414   0.000028   0.000003   0.000000
    10  C    0.271887  -0.050347   0.000028   5.364780  -0.052052   0.242429
    11  C    0.285739  -0.050608   0.000003  -0.052052   5.317439   0.002786
    12  C   -0.052984   0.300040   0.000000   0.242429   0.002786   5.404630
    13  C   -0.078039   0.301456   0.000000  -0.000519   0.240122  -0.093843
    14  C    0.162244  -0.000668  -0.004543  -0.052674  -0.060982  -0.003433
    15  C    0.002267  -0.000009   0.194541  -0.005349   0.000425  -0.000175
    16  C   -0.036093  -0.000305  -0.039823  -0.022966   0.001259  -0.001998
    17  C   -0.000901   0.270726   0.000000   0.004013   0.005525  -0.081060
    18  C   -0.022542   0.000073   0.000675   0.001834  -0.006334  -0.000536
    19  C    0.001524   0.000000  -0.015612  -0.000290  -0.000085   0.000021
    20  C    0.008284   0.000002   0.010345   0.000828  -0.001189   0.000003
    21  C    0.000072   0.000000   0.229102   0.000018  -0.000004  -0.000010
    22  C    0.000035   0.000000  -0.010971  -0.000016   0.000004   0.000000
    23  C    0.000009   0.000000   0.405116  -0.000005   0.000000   0.000000
    24  C   -0.000002   0.000000  -0.055580   0.000002   0.000000   0.000000
    25  C   -0.000023   0.000000  -0.048387  -0.000005   0.000001   0.000002
    26  C    0.000000   0.000000   0.007444   0.000000   0.000000   0.000000
    27  H   -0.035203   0.003481   0.000024   0.350589   0.006088  -0.021597
    28  H   -0.062828  -0.000838   0.000000   0.380318  -0.003284  -0.049351
    29  H   -0.055470   0.000131   0.000000  -0.001210   0.369457  -0.002147
    30  H   -0.038853   0.003214   0.000000   0.007168   0.358702  -0.000851
    31  H   -0.003469  -0.077739   0.000000  -0.050706   0.001662   0.349837
    32  H    0.004753  -0.037054   0.000000  -0.017381  -0.001411   0.346471
    33  H    0.004459  -0.038922   0.000000  -0.001016  -0.022103   0.008999
    34  H    0.001232  -0.080812   0.000000   0.001269  -0.051409  -0.008715
    35  H    0.000025  -0.036076   0.000000  -0.000398  -0.000139   0.005107
    36  H    0.000033  -0.036812   0.000000  -0.000041  -0.000402  -0.000230
    37  H   -0.000112  -0.068089   0.000000   0.000313   0.000382  -0.005633
    38  H   -0.000084   0.000000  -0.000054  -0.000002   0.000015   0.000000
    39  H   -0.000012   0.000000  -0.033151   0.000027   0.000001   0.000000
    40  H    0.000000   0.000000  -0.045798   0.000000   0.000000   0.000000
    41  H    0.000000   0.000000  -0.038291   0.000000   0.000000   0.000000
    42  H    0.000005   0.000000  -0.005380  -0.000034   0.000000   0.000018
    43  H    0.000000   0.000000   0.004875   0.000003   0.000000  -0.000001
    44  H    0.000000   0.000000   0.000001   0.000000   0.000000   0.000000
              13         14         15         16         17         18
     1  F   -0.000140  -0.074011  -0.038627   0.274382   0.000002  -0.000025
     2  F    0.000656  -0.040197  -0.000765   0.000574   0.000000   0.290338
     3  F    0.000000  -0.000001   0.001111  -0.000121   0.000000   0.000000
     4  O    0.000000   0.000174  -0.007569  -0.000312   0.000000   0.002215
     5  O    0.000000   0.000000  -0.000371  -0.000004   0.000000   0.000001
     6  O    0.000000   0.000000  -0.000603  -0.000022   0.000000   0.000000
     7  N   -0.078039   0.162244   0.002267  -0.036093  -0.000901  -0.022542
     8  N    0.301456  -0.000668  -0.000009  -0.000305   0.270726   0.000073
     9  N    0.000000  -0.004543   0.194541  -0.039823   0.000000   0.000675
    10  C   -0.000519  -0.052674  -0.005349  -0.022966   0.004013   0.001834
    11  C    0.240122  -0.060982   0.000425   0.001259   0.005525  -0.006334
    12  C   -0.093843  -0.003433  -0.000175  -0.001998  -0.081060  -0.000536
    13  C    5.435060   0.003916  -0.000133  -0.000777  -0.087342   0.000865
    14  C    0.003916   5.719466  -0.108566   0.342951  -0.000061   0.281604
    15  C   -0.000133  -0.108566   5.779882   0.359728   0.000000  -0.098589
    16  C   -0.000777   0.342951   0.359728   5.402251   0.000012  -0.150893
    17  C   -0.087342  -0.000061   0.000000   0.000012   5.387522   0.000000
    18  C    0.000865   0.281604  -0.098589  -0.150893   0.000000   5.148560
    19  C   -0.000028  -0.147835   0.111610  -0.175676   0.000000  -0.085671
    20  C    0.000175  -0.164936  -0.197400  -0.112797   0.000000   0.389121
    21  C    0.000000  -0.002322  -0.037619  -0.014508   0.000000  -0.000330
    22  C    0.000000  -0.001589  -0.027264  -0.001773   0.000000  -0.011187
    23  C    0.000000   0.000189  -0.135889  -0.004116   0.000000   0.000316
    24  C    0.000000   0.000202   0.017635  -0.003420   0.000000  -0.000944
    25  C    0.000000   0.000700  -0.001846   0.003998   0.000000   0.000067
    26  C    0.000000  -0.000021  -0.001121  -0.000576   0.000000   0.000028
    27  H   -0.000683  -0.001943  -0.000667  -0.002485  -0.000260   0.000815
    28  H   -0.001763   0.006187   0.000214   0.003400   0.000446  -0.001213
    29  H   -0.046861   0.000946   0.000008  -0.000070   0.000192   0.001742
    30  H   -0.032360  -0.001378   0.000091   0.000210  -0.000248   0.001384
    31  H   -0.009622  -0.000767   0.000150   0.001918   0.002519  -0.000078
    32  H    0.009425   0.000077   0.000005   0.000145  -0.007881  -0.000003
    33  H    0.359506  -0.000030   0.000000   0.000018  -0.006748  -0.000019
    34  H    0.345185   0.001223   0.000019   0.000132   0.001987  -0.000009
    35  H   -0.000496   0.000000   0.000000   0.000000   0.369447   0.000000
    36  H    0.005231   0.000001   0.000000   0.000000   0.369345   0.000000
    37  H   -0.004136  -0.000005   0.000000   0.000005   0.353229   0.000000
    38  H    0.000000  -0.002184   0.004800   0.000129   0.000000  -0.050282
    39  H    0.000000   0.000871  -0.005097   0.006784   0.000000   0.000055
    40  H    0.000000   0.000002   0.001308  -0.000030   0.000000  -0.000002
    41  H    0.000000  -0.000008  -0.004195  -0.000072   0.000000   0.000003
    42  H    0.000000  -0.000466   0.003741  -0.001009   0.000000  -0.000023
    43  H    0.000000   0.000013  -0.000140   0.000072   0.000000   0.000000
    44  H    0.000000   0.000000   0.000010   0.000000   0.000000   0.000000
              19         20         21         22         23         24
     1  F   -0.004242  -0.000404   0.007056  -0.000156   0.001276   0.000044
     2  F   -0.001915  -0.063251   0.000000  -0.000050   0.000000  -0.000004
     3  F   -0.000061  -0.000001  -0.036168   0.000019   0.008984   0.000221
     4  O   -0.133167   0.031945   0.000008   0.674479   0.001513  -0.075606
     5  O   -0.000422   0.000165   0.000000   0.006058  -0.006246  -0.029617
     6  O    0.000098   0.000030   0.000158  -0.003172   0.001802  -0.061193
     7  N    0.001524   0.008284   0.000072   0.000035   0.000009  -0.000002
     8  N    0.000000   0.000002   0.000000   0.000000   0.000000   0.000000
     9  N   -0.015612   0.010345   0.229102  -0.010971   0.405116  -0.055580
    10  C   -0.000290   0.000828   0.000018  -0.000016  -0.000005   0.000002
    11  C   -0.000085  -0.001189  -0.000004   0.000004   0.000000   0.000000
    12  C    0.000021   0.000003  -0.000010   0.000000   0.000000   0.000000
    13  C   -0.000028   0.000175   0.000000   0.000000   0.000000   0.000000
    14  C   -0.147835  -0.164936  -0.002322  -0.001589   0.000189   0.000202
    15  C    0.111610  -0.197400  -0.037619  -0.027264  -0.135889   0.017635
    16  C   -0.175676  -0.112797  -0.014508  -0.001773  -0.004116  -0.003420
    17  C    0.000000   0.000000   0.000000   0.000000   0.000000   0.000000
    18  C   -0.085671   0.389121  -0.000330  -0.011187   0.000316  -0.000944
    19  C    5.818897   0.464813   0.006678   0.045365   0.024793  -0.158304
    20  C    0.464813   5.999083   0.000369  -0.023774   0.006097  -0.021987
    21  C    0.006678   0.000369   5.477096   0.000663  -0.051274   0.000537
    22  C    0.045365  -0.023774   0.000663   5.242186  -0.078070   0.047605
    23  C    0.024793   0.006097  -0.051274  -0.078070   5.504394   0.299183
    24  C   -0.158304  -0.021987   0.000537   0.047605   0.299183   5.882153
    25  C   -0.000820  -0.000077   0.205139   0.000086  -0.017315  -0.002007
    26  C   -0.023164   0.000704   0.000263  -0.031289  -0.031788   0.093092
    27  H    0.000002   0.000055  -0.000040  -0.000001   0.000002   0.000000
    28  H   -0.000009  -0.000091   0.000000   0.000000   0.000000   0.000000
    29  H    0.000017  -0.000076   0.000000   0.000000   0.000000   0.000000
    30  H   -0.000042   0.000000   0.000000   0.000000   0.000000   0.000000
    31  H    0.000003  -0.000003   0.000002   0.000000   0.000000   0.000000
    32  H    0.000000   0.000000   0.000000   0.000000   0.000000   0.000000
    33  H    0.000000  -0.000001   0.000000   0.000000   0.000000   0.000000
    34  H    0.000002  -0.000006   0.000000   0.000000   0.000000   0.000000
    35  H    0.000000   0.000000   0.000000   0.000000   0.000000   0.000000
    36  H    0.000000   0.000000   0.000000   0.000000   0.000000   0.000000
    37  H    0.000000   0.000000   0.000000   0.000000   0.000000   0.000000
    38  H   -0.005333   0.317745   0.000003   0.003604  -0.000142   0.002638
    39  H   -0.000429  -0.000064   0.315028  -0.000034   0.001827  -0.000020
    40  H    0.000190   0.000019   0.362361  -0.000040  -0.001327   0.000750
    41  H   -0.000381   0.000050  -0.001005   0.003592   0.314085  -0.016514
    42  H    0.000661   0.000019  -0.041694   0.000001  -0.000726  -0.000097
    43  H   -0.000026   0.000000  -0.025589   0.000000   0.000650   0.000037
    44  H    0.000043  -0.000005   0.000000   0.001421  -0.000361   0.005429
              25         26         27         28         29         30
     1  F   -0.004756   0.000000   0.000125   0.000170  -0.000004   0.000002
     2  F    0.000000   0.000000  -0.000004  -0.000001  -0.001644  -0.002646
     3  F    0.258247   0.000044   0.000000   0.000000   0.000000   0.000000
     4  O    0.000000  -0.007340   0.000000   0.000000   0.000000   0.000000
     5  O    0.000000   0.253563   0.000000   0.000000   0.000000   0.000000
     6  O    0.000014   0.589465   0.000000   0.000000   0.000000   0.000000
     7  N   -0.000023   0.000000  -0.035203  -0.062828  -0.055470  -0.038853
     8  N    0.000000   0.000000   0.003481  -0.000838   0.000131   0.003214
     9  N   -0.048387   0.007444   0.000024   0.000000   0.000000   0.000000
    10  C   -0.000005   0.000000   0.350589   0.380318  -0.001210   0.007168
    11  C    0.000001   0.000000   0.006088  -0.003284   0.369457   0.358702
    12  C    0.000002   0.000000  -0.021597  -0.049351  -0.002147  -0.000851
    13  C    0.000000   0.000000  -0.000683  -0.001763  -0.046861  -0.032360
    14  C    0.000700  -0.000021  -0.001943   0.006187   0.000946  -0.001378
    15  C   -0.001846  -0.001121  -0.000667   0.000214   0.000008   0.000091
    16  C    0.003998  -0.000576  -0.002485   0.003400  -0.000070   0.000210
    17  C    0.000000   0.000000  -0.000260   0.000446   0.000192  -0.000248
    18  C    0.000067   0.000028   0.000815  -0.001213   0.001742   0.001384
    19  C   -0.000820  -0.023164   0.000002  -0.000009   0.000017  -0.000042
    20  C   -0.000077   0.000704   0.000055  -0.000091  -0.000076   0.000000
    21  C    0.205139   0.000263  -0.000040   0.000000   0.000000   0.000000
    22  C    0.000086  -0.031289  -0.000001   0.000000   0.000000   0.000000
    23  C   -0.017315  -0.031788   0.000002   0.000000   0.000000   0.000000
    24  C   -0.002007   0.093092   0.000000   0.000000   0.000000   0.000000
    25  C    5.100090   0.000032  -0.000027   0.000001   0.000000   0.000000
    26  C    0.000032   4.979353   0.000000   0.000000   0.000000   0.000000
    27  H   -0.000027   0.000000   0.513976  -0.026924   0.000048  -0.000085
    28  H    0.000001   0.000000  -0.026924   0.515591   0.004823   0.000093
    29  H    0.000000   0.000000   0.000048   0.004823   0.518678  -0.019236
    30  H    0.000000   0.000000  -0.000085   0.000093  -0.019236   0.504289
    31  H    0.000002   0.000000   0.000512   0.004245   0.000180   0.000138
    32  H    0.000000   0.000000  -0.000617  -0.002108   0.000086  -0.000005
    33  H    0.000000   0.000000  -0.000005   0.000049  -0.002453  -0.000833
    34  H    0.000000   0.000000   0.000125   0.000235   0.004646   0.001028
    35  H    0.000000   0.000000   0.000001  -0.000002   0.000004  -0.000010
    36  H    0.000000   0.000000  -0.000010   0.000010   0.000000   0.000001
    37  H    0.000000   0.000000   0.000019   0.000001   0.000007   0.000018
    38  H    0.000000  -0.000010   0.000000   0.000000   0.000000   0.000003
    39  H   -0.015713   0.000004   0.000004   0.000000   0.000000   0.000000
    40  H   -0.036897   0.000017   0.000000   0.000000   0.000000   0.000000
    41  H    0.000642  -0.005872   0.000000   0.000000   0.000000   0.000000
    42  H    0.355102   0.000001   0.000117  -0.000001   0.000000   0.000000
    43  H    0.342287   0.000000   0.000000   0.000000   0.000000   0.000000
    44  H    0.000000  -0.030341   0.000000   0.000000   0.000000   0.000000
              31         32         33         34         35         36
     1  F    0.000419  -0.000006   0.000000  -0.000010   0.000000   0.000000
     2  F    0.000000   0.000000   0.000003   0.000000   0.000000   0.000000
     3  F    0.000000   0.000000   0.000000   0.000000   0.000000   0.000000
     4  O    0.000000   0.000000   0.000000   0.000000   0.000000   0.000000
     5  O    0.000000   0.000000   0.000000   0.000000   0.000000   0.000000
     6  O    0.000000   0.000000   0.000000   0.000000   0.000000   0.000000
     7  N   -0.003469   0.004753   0.004459   0.001232   0.000025   0.000033
     8  N   -0.077739  -0.037054  -0.038922  -0.080812  -0.036076  -0.036812
     9  N    0.000000   0.000000   0.000000   0.000000   0.000000   0.000000
    10  C   -0.050706  -0.017381  -0.001016   0.001269  -0.000398  -0.000041
    11  C    0.001662  -0.001411  -0.022103  -0.051409  -0.000139  -0.000402
    12  C    0.349837   0.346471   0.008999  -0.008715   0.005107  -0.000230
    13  C   -0.009622   0.009425   0.359506   0.345185  -0.000496   0.005231
    14  C   -0.000767   0.000077  -0.000030   0.001223   0.000000   0.000001
    15  C    0.000150   0.000005   0.000000   0.000019   0.000000   0.000000
    16  C    0.001918   0.000145   0.000018   0.000132   0.000000   0.000000
    17  C    0.002519  -0.007881  -0.006748   0.001987   0.369447   0.369345
    18  C   -0.000078  -0.000003  -0.000019  -0.000009   0.000000   0.000000
    19  C    0.000003   0.000000   0.000000   0.000002   0.000000   0.000000
    20  C   -0.000003   0.000000  -0.000001  -0.000006   0.000000   0.000000
    21  C    0.000002   0.000000   0.000000   0.000000   0.000000   0.000000
    22  C    0.000000   0.000000   0.000000   0.000000   0.000000   0.000000
    23  C    0.000000   0.000000   0.000000   0.000000   0.000000   0.000000
    24  C    0.000000   0.000000   0.000000   0.000000   0.000000   0.000000
    25  C    0.000002   0.000000   0.000000   0.000000   0.000000   0.000000
    26  C    0.000000   0.000000   0.000000   0.000000   0.000000   0.000000
    27  H    0.000512  -0.000617  -0.000005   0.000125   0.000001  -0.000010
    28  H    0.004245  -0.002108   0.000049   0.000235  -0.000002   0.000010
    29  H    0.000180   0.000086  -0.002453   0.004646   0.000004   0.000000
    30  H    0.000138  -0.000005  -0.000833   0.001028  -0.000010   0.000001
    31  H    0.607495  -0.036075  -0.000270   0.012685  -0.000246  -0.001142
    32  H   -0.036075   0.530149  -0.000065  -0.000210   0.000233   0.004070
    33  H   -0.000270  -0.000065   0.516084  -0.036248   0.003794   0.000212
    34  H    0.012685  -0.000210  -0.036248   0.621733  -0.001152  -0.000242
    35  H   -0.000246   0.000233   0.003794  -0.001152   0.487703  -0.014850
    36  H   -0.001142   0.004070   0.000212  -0.000242  -0.014850   0.490078
    37  H    0.010151  -0.001373  -0.001403   0.010445  -0.032181  -0.032924
    38  H    0.000000   0.000000   0.000000   0.000000   0.000000   0.000000
    39  H    0.000001   0.000000   0.000000   0.000000   0.000000   0.000000
    40  H    0.000000   0.000000   0.000000   0.000000   0.000000   0.000000
    41  H    0.000000   0.000000   0.000000   0.000000   0.000000   0.000000
    42  H   -0.000001   0.000000   0.000000   0.000000   0.000000   0.000000
    43  H    0.000000   0.000000   0.000000   0.000000   0.000000   0.000000
    44  H    0.000000   0.000000   0.000000   0.000000   0.000000   0.000000
              37         38         39         40         41         42
     1  F    0.000000   0.000000  -0.001601   0.000449   0.000000   0.001735
     2  F    0.000000   0.000698   0.000000   0.000000   0.000000   0.000000
     3  F    0.000000   0.000000   0.002589  -0.005023  -0.002142  -0.041006
     4  O    0.000000   0.012236   0.000000   0.000000  -0.000060   0.000000
     5  O    0.000000   0.000000   0.000000   0.000000   0.000330   0.000000
     6  O    0.000000   0.000000   0.000000   0.000011   0.013377   0.000000
     7  N   -0.000112  -0.000084  -0.000012   0.000000   0.000000   0.000005
     8  N   -0.068089   0.000000   0.000000   0.000000   0.000000   0.000000
     9  N    0.000000  -0.000054  -0.033151  -0.045798  -0.038291  -0.005380
    10  C    0.000313  -0.000002   0.000027   0.000000   0.000000  -0.000034
    11  C    0.000382   0.000015   0.000001   0.000000   0.000000   0.000000
    12  C   -0.005633   0.000000   0.000000   0.000000   0.000000   0.000018
    13  C   -0.004136   0.000000   0.000000   0.000000   0.000000   0.000000
    14  C   -0.000005  -0.002184   0.000871   0.000002  -0.000008  -0.000466
    15  C    0.000000   0.004800  -0.005097   0.001308  -0.004195   0.003741
    16  C    0.000005   0.000129   0.006784  -0.000030  -0.000072  -0.001009
    17  C    0.353229   0.000000   0.000000   0.000000   0.000000   0.000000
    18  C    0.000000  -0.050282   0.000055  -0.000002   0.000003  -0.000023
    19  C    0.000000  -0.005333  -0.000429   0.000190  -0.000381   0.000661
    20  C    0.000000   0.317745  -0.000064   0.000019   0.000050   0.000019
    21  C    0.000000   0.000003   0.315028   0.362361  -0.001005  -0.041694
    22  C    0.000000   0.003604  -0.000034  -0.000040   0.003592   0.000001
    23  C    0.000000  -0.000142   0.001827  -0.001327   0.314085  -0.000726
[...]
    19  C    5.862291   0.462901   0.008989   0.054092   0.021564  -0.160830
    20  C    0.462901   5.998267   0.000386  -0.022130   0.005720  -0.019060
    21  C    0.008989   0.000386   5.467051   0.000646  -0.054975   0.000186
    22  C    0.054092  -0.022130   0.000646   5.257100  -0.085839   0.041693
    23  C    0.021564   0.005720  -0.054975  -0.085839   5.505612   0.299668
    24  C   -0.160830  -0.019060   0.000186   0.041693   0.299668   5.878210
    25  C   -0.001736  -0.000127   0.207659   0.000093  -0.017362  -0.001879
    26  C   -0.023710   0.000668   0.000459  -0.033229  -0.024951   0.082955
    27  H    0.000022   0.000038  -0.000068   0.000000   0.000002   0.000000
    28  H   -0.000006  -0.000063   0.000000   0.000000   0.000000   0.000000
    29  H    0.000011  -0.000098   0.000000   0.000000   0.000000   0.000000
    30  H   -0.000061  -0.000555   0.000000   0.000000   0.000000   0.000000
    31  H    0.000002  -0.000003   0.000005   0.000000   0.000000   0.000000
    32  H    0.000000   0.000000   0.000000   0.000000   0.000000   0.000000
    33  H    0.000000  -0.000001   0.000000   0.000000   0.000000   0.000000
    34  H    0.000002  -0.000009   0.000000   0.000000   0.000000   0.000000
    35  H    0.000000   0.000000   0.000000   0.000000   0.000000   0.000000
    36  H    0.000000   0.000000   0.000000   0.000000   0.000000   0.000000
    37  H    0.000000   0.000000   0.000000   0.000000   0.000000   0.000000
    38  H   -0.007632   0.317046   0.000004   0.003549  -0.000129   0.002452
    39  H   -0.000493  -0.000066   0.310451  -0.000026   0.001314  -0.000008
    40  H    0.000260   0.000019   0.360622  -0.000063   0.002119   0.000389
    41  H   -0.000047   0.000059  -0.003354   0.003905   0.311537  -0.012278
    42  H    0.001441   0.000039  -0.042723   0.000023  -0.000932  -0.000137
    43  H   -0.000059   0.000000  -0.024241   0.000000   0.000700   0.000041
    44  H    0.000042  -0.000005   0.000000   0.001405  -0.000304   0.004838
              25         26         27         28         29         30
     1  F   -0.003881   0.000000  -0.000190   0.000213  -0.000004   0.000002
     2  F    0.000000   0.000000  -0.000005   0.000002  -0.001677  -0.001823
     3  F    0.257788   0.000033   0.000000   0.000000   0.000000   0.000000
     4  O    0.000000  -0.006786   0.000000   0.000000   0.000000   0.000000
     5  O    0.000000   0.254037   0.000000   0.000000   0.000000   0.000000
     6  O    0.000005   0.589754   0.000000   0.000000   0.000000   0.000000
     7  N   -0.000032   0.000000  -0.034450  -0.059580  -0.054125  -0.037097
     8  N    0.000000   0.000000   0.003600  -0.000660   0.000612   0.003231
     9  N   -0.056416   0.007964   0.000018   0.000000   0.000000   0.000000
    10  C    0.000030   0.000000   0.349764   0.377462  -0.001421   0.006698
    11  C    0.000001   0.000000   0.005807  -0.004174   0.367214   0.357271
    12  C    0.000008   0.000000  -0.022976  -0.048632  -0.002498  -0.000816
    13  C    0.000000   0.000000  -0.000668  -0.002044  -0.046336  -0.033828
    14  C    0.001355  -0.000017  -0.003045   0.006484   0.002809   0.001176
    15  C   -0.001014  -0.001063  -0.000399   0.000185   0.000014   0.000127
    16  C    0.005744  -0.000543  -0.000531   0.003025  -0.000018   0.000894
    17  C    0.000000   0.000000  -0.000255   0.000501   0.000216  -0.000244
    18  C    0.000117   0.000027   0.000563  -0.001037   0.000576  -0.001163
    19  C   -0.001736  -0.023710   0.000022  -0.000006   0.000011  -0.000061
    20  C   -0.000127   0.000668   0.000038  -0.000063  -0.000098  -0.000555
    21  C    0.207659   0.000459  -0.000068   0.000000   0.000000   0.000000
    22  C    0.000093  -0.033229   0.000000   0.000000   0.000000   0.000000
    23  C   -0.017362  -0.024951   0.000002   0.000000   0.000000   0.000000
    24  C   -0.001879   0.082955   0.000000   0.000000   0.000000   0.000000
    25  C    5.110147   0.000012  -0.000010   0.000001   0.000000   0.000000
    26  C    0.000012   4.981343   0.000000   0.000000   0.000000   0.000000
    27  H   -0.000010   0.000000   0.514561  -0.026533   0.000089  -0.000079
    28  H    0.000001   0.000000  -0.026533   0.512203   0.004768   0.000135
    29  H    0.000000   0.000000   0.000089   0.004768   0.515562  -0.017517
    30  H    0.000000   0.000000  -0.000079   0.000135  -0.017517   0.495237
    31  H    0.000000   0.000000   0.000651   0.004190   0.000186   0.000129
    32  H   -0.000001   0.000000  -0.000428  -0.002328   0.000088  -0.000005
    33  H    0.000000   0.000000  -0.000005   0.000043  -0.002759  -0.000658
    34  H    0.000000   0.000000   0.000127   0.000233   0.004677   0.001087
    35  H    0.000000   0.000000   0.000001  -0.000003   0.000002  -0.000010
    36  H    0.000000   0.000000  -0.000010   0.000010  -0.000001   0.000001
    37  H    0.000000   0.000000   0.000017   0.000001   0.000007   0.000015
    38  H    0.000000  -0.000014   0.000000   0.000000   0.000000   0.000005
    39  H   -0.016343   0.000003   0.000008   0.000000   0.000000   0.000000
    40  H   -0.036394   0.000007   0.000000   0.000000   0.000000   0.000000
    41  H    0.000565  -0.006035   0.000000   0.000000   0.000000   0.000000
    42  H    0.356848   0.000001   0.000140  -0.000001   0.000000   0.000000
    43  H    0.338072   0.000000  -0.000001   0.000000   0.000000   0.000000
    44  H    0.000000  -0.028697   0.000000   0.000000   0.000000   0.000000
              31         32         33         34         35         36
     1  F    0.000599  -0.000010   0.000000  -0.000005   0.000000   0.000000
     2  F    0.000000   0.000000   0.000004   0.000001   0.000000   0.000000
     3  F    0.000000   0.000000   0.000000   0.000000   0.000000   0.000000
     4  O    0.000000   0.000000   0.000000   0.000000   0.000000   0.000000
     5  O    0.000000   0.000000   0.000000   0.000000   0.000000   0.000000
     6  O    0.000000   0.000000   0.000000   0.000000   0.000000   0.000000
     7  N   -0.003524   0.004835   0.004435   0.001152   0.000024   0.000032
     8  N   -0.075279  -0.036757  -0.037969  -0.079498  -0.036159  -0.036557
     9  N    0.000000   0.000000   0.000000   0.000000   0.000000   0.000000
    10  C   -0.050399  -0.018333  -0.001105   0.001002  -0.000366  -0.000087
    11  C    0.001325  -0.001456  -0.022359  -0.050862  -0.000174  -0.000356
    12  C    0.351825   0.346631   0.008591  -0.008571   0.004828  -0.000275
    13  C   -0.009825   0.009067   0.359191   0.346841  -0.000570   0.004927
    14  C    0.000195   0.000088  -0.000061   0.001866   0.000000   0.000000
    15  C    0.000151   0.000006   0.000000   0.000025   0.000000   0.000000
    16  C    0.001601   0.000142   0.000015   0.000077   0.000000   0.000001
    17  C    0.002758  -0.007366  -0.006398   0.002232   0.370061   0.369903
    18  C   -0.000040  -0.000005  -0.000020  -0.000020   0.000000   0.000000
    19  C    0.000002   0.000000   0.000000   0.000002   0.000000   0.000000
    20  C   -0.000003   0.000000  -0.000001  -0.000009   0.000000   0.000000
    21  C    0.000005   0.000000   0.000000   0.000000   0.000000   0.000000
    22  C    0.000000   0.000000   0.000000   0.000000   0.000000   0.000000
    23  C    0.000000   0.000000   0.000000   0.000000   0.000000   0.000000
    24  C    0.000000   0.000000   0.000000   0.000000   0.000000   0.000000
    25  C    0.000000  -0.000001   0.000000   0.000000   0.000000   0.000000
    26  C    0.000000   0.000000   0.000000   0.000000   0.000000   0.000000
    27  H    0.000651  -0.000428  -0.000005   0.000127   0.000001  -0.000010
    28  H    0.004190  -0.002328   0.000043   0.000233  -0.000003   0.000010
    29  H    0.000186   0.000088  -0.002759   0.004677   0.000002  -0.000001
    30  H    0.000129  -0.000005  -0.000658   0.001087  -0.000010   0.000001
    31  H    0.596027  -0.034488  -0.000260   0.012133  -0.000247  -0.000999
    32  H   -0.034488   0.528781  -0.000065  -0.000193   0.000240   0.003891
    33  H   -0.000260  -0.000065   0.514078  -0.035724   0.003738   0.000223
    34  H    0.012133  -0.000193  -0.035724   0.615572  -0.001028  -0.000250
    35  H   -0.000247   0.000240   0.003738  -0.001028   0.486978  -0.014049
    36  H   -0.000999   0.003891   0.000223  -0.000250  -0.014049   0.489227
    37  H    0.008600  -0.001261  -0.001335   0.009042  -0.033267  -0.033821
    38  H    0.000000   0.000000   0.000000   0.000000   0.000000   0.000000
    39  H    0.000001   0.000000   0.000000   0.000000   0.000000   0.000000
    40  H    0.000000   0.000000   0.000000   0.000000   0.000000   0.000000
    41  H    0.000000   0.000000   0.000000   0.000000   0.000000   0.000000
    42  H    0.000000   0.000000   0.000000   0.000000   0.000000   0.000000
    43  H    0.000000   0.000000   0.000000   0.000000   0.000000   0.000000
    44  H    0.000000   0.000000   0.000000   0.000000   0.000000   0.000000
              37         38         39         40         41         42
     1  F    0.000000   0.000000  -0.000606   0.000498  -0.000001   0.000931
     2  F    0.000000   0.000542   0.000000   0.000000   0.000000   0.000000
     3  F    0.000000   0.000000   0.002790  -0.006826  -0.001725  -0.038481
     4  O    0.000000   0.011997   0.000000   0.000000  -0.000057   0.000000
     5  O    0.000000   0.000000   0.000000   0.000000   0.000366   0.000000
     6  O    0.000000   0.000000   0.000000   0.000006   0.012345   0.000000
     7  N   -0.000093  -0.000073  -0.000012   0.000000   0.000000   0.000015
     8  N   -0.066707   0.000000   0.000000   0.000000   0.000000   0.000000
     9  N    0.000000  -0.000051  -0.033757  -0.042329  -0.036823  -0.006530
    10  C    0.000277  -0.000001   0.000043  -0.000001   0.000000  -0.000049
    11  C    0.000334   0.000013   0.000001   0.000000   0.000000   0.000000
    12  C   -0.004766   0.000000  -0.000001   0.000000   0.000000   0.000016
    13  C   -0.003375   0.000000   0.000000   0.000000   0.000000   0.000000
    14  C   -0.000003  -0.001524   0.001003  -0.000005  -0.000009  -0.000784
    15  C    0.000000   0.004231  -0.005800   0.000979  -0.004898   0.006946
    16  C    0.000005   0.000123   0.007428  -0.000162  -0.000104  -0.001206
    17  C    0.353488   0.000000   0.000000   0.000000   0.000000   0.000000
    18  C    0.000000  -0.047112   0.000053  -0.000002   0.000003  -0.000051
    19  C    0.000000  -0.007632  -0.000493   0.000260  -0.000047   0.001441
    20  C    0.000000   0.317046  -0.000066   0.000019   0.000059   0.000039
    21  C    0.000000   0.000004   0.310451   0.360622  -0.003354  -0.042723
    22  C    0.000000   0.003549  -0.000026  -0.000063   0.003905   0.000023
    23  C    0.000000  -0.000129   0.001314   0.002119   0.311537  -0.000932
    24  C    0.000000   0.002452  -0.000008   0.000389  -0.012278  -0.000137
    25  C    0.000000   0.000000  -0.016343  -0.036394   0.000565   0.356848
    26  C    0.000000  -0.000014   0.000003   0.000007  -0.006035   0.000001
    27  H    0.000017   0.000000   0.000008   0.000000   0.000000   0.000140
    28  H    0.000001   0.000000   0.000000   0.000000   0.000000  -0.000001
    29  H    0.000007   0.000000   0.000000   0.000000   0.000000   0.000000
    30  H    0.000015   0.000005   0.000000   0.000000   0.000000   0.000000
    31  H    0.008600   0.000000   0.000001   0.000000   0.000000   0.000000
    32  H   -0.001261   0.000000   0.000000   0.000000   0.000000   0.000000
    33  H   -0.001335   0.000000   0.000000   0.000000   0.000000   0.000000
    34  H    0.009042   0.000000   0.000000   0.000000   0.000000   0.000000
    35  H   -0.033267   0.000000   0.000000   0.000000   0.000000   0.000000
    36  H   -0.033821   0.000000   0.000000   0.000000   0.000000   0.000000
    37  H    0.587799   0.000000   0.000000   0.000000   0.000000   0.000000
    38  H    0.000000   0.413055   0.000000   0.000000   0.000000   0.000000
    39  H    0.000000   0.000000   0.496579  -0.029163   0.000159   0.001179
    40  H    0.000000   0.000000  -0.029163   0.499212   0.005092   0.003036
    41  H    0.000000   0.000000   0.000159   0.005092   0.451244  -0.000004
    42  H    0.000000   0.000000   0.001179   0.003036  -0.000004   0.536429
    43  H    0.000000   0.000000   0.002105  -0.005541  -0.000031  -0.041671
    44  H    0.000000   0.000000   0.000000   0.000000  -0.000001   0.000000
              43         44
     1  F   -0.000129   0.000000
     2  F    0.000000   0.000000
     3  F   -0.040442   0.000000
     4  O    0.000000   0.000263
     5  O    0.000000   0.250516
     6  O    0.000000   0.002813
     7  N    0.000000   0.000000
     8  N    0.000000   0.000000
     9  N    0.005151   0.000001
    10  C    0.000004   0.000000
    11  C    0.000000   0.000000
    12  C   -0.000001   0.000000
    13  C    0.000000   0.000000
    14  C    0.000026   0.000000
    15  C   -0.000534   0.000009
    16  C    0.000152   0.000000
    17  C    0.000000   0.000000
    18  C    0.000001   0.000000
    19  C   -0.000059   0.000042
    20  C    0.000000  -0.000005
    21  C   -0.024241   0.000000
    22  C    0.000000   0.001405
    23  C    0.000700  -0.000304
    24  C    0.000041   0.004838
    25  C    0.338072   0.000000
    26  C    0.000000  -0.028697
    27  H   -0.000001   0.000000
    28  H    0.000000   0.000000
    29  H    0.000000   0.000000
    30  H    0.000000   0.000000
    31  H    0.000000   0.000000
    32  H    0.000000   0.000000
    33  H    0.000000   0.000000
    34  H    0.000000   0.000000
    35  H    0.000000   0.000000
    36  H    0.000000   0.000000
    37  H    0.000000   0.000000
    38  H    0.000000   0.000000
    39  H    0.002105   0.000000
    40  H   -0.005541   0.000000
    41  H   -0.000031  -0.000001
    42  H   -0.041671   0.000000
    43  H    0.548991   0.000000
    44  H    0.000000   0.359843
 Mulliken charges:
               1
     1  F   -0.275618
     2  F   -0.250700
     3  F   -0.277514
     4  O   -0.282773
     5  O   -0.453250
     6  O   -0.346444
     7  N   -0.246291
     8  N   -0.109506
     9  N   -0.222488
    10  C   -0.367054
    11  C   -0.350805
    12  C   -0.339180
    13  C   -0.340611
    14  C    0.179052
    15  C    0.213475
    16  C    0.159714
    17  C   -0.582092
    18  C    0.295726
    19  C    0.262307
    20  C   -0.636324
    21  C   -0.387581
    22  C    0.162202
    23  C   -0.244150
    24  C    0.095486
    25  C   -0.143248
    26  C    0.207782
    27  H    0.214248
    28  H    0.235605
    29  H    0.229620
    30  H    0.227846
    31  H    0.194686
    32  H    0.208926
    33  H    0.218400
    34  H    0.180091
    35  H    0.220001
    36  H    0.218191
    37  H    0.185042
    38  H    0.303518
    39  H    0.263159
    40  H    0.248247
    41  H    0.280091
    42  H    0.225527
    43  H    0.217408
    44  H    0.409278
 Sum of Mulliken charges =   0.00000
 Mulliken charges with hydrogens summed into heavy atoms:
               1
     1  F   -0.275618
     2  F   -0.250700
     3  F   -0.277514
     4  O   -0.282773
     5  O   -0.043972
     6  O   -0.346444
     7  N   -0.246291
     8  N   -0.109506
     9  N   -0.222488
    10  C    0.082799
    11  C    0.106660
    12  C    0.064432
    13  C    0.057880
    14  C    0.179052
    15  C    0.213475
    16  C    0.159714
    17  C    0.041143
    18  C    0.295726
    19  C    0.262307
    20  C   -0.332806
    21  C    0.123825
    22  C    0.162202
    23  C    0.035941
    24  C    0.095486
    25  C    0.299687
    26  C    0.207782
 Electronic spatial extent (au):  <R**2>=          11433.1907
 Charge=              0.0000 electrons
 Dipole moment (field-independent basis, Debye):
    X=              6.9711    Y=              4.9161    Z=             -1.9551  Tot=              8.7514
 Quadrupole moment (field-independent basis, Debye-Ang):
   XX=           -157.2596   YY=           -154.3463   ZZ=           -149.9826
   XY=              1.7083   XZ=             -2.7389   YZ=             -0.4968
 Traceless Quadrupole moment (field-independent basis, Debye-Ang):
   XX=             -3.3968   YY=             -0.4834   ZZ=              3.8802
   XY=              1.7083   XZ=             -2.7389   YZ=             -0.4968
 Octapole moment (field-independent basis, Debye-Ang**2):
  XXX=             89.1994  YYY=             84.7632  ZZZ=              8.4579  XYY=             57.1200
  XXY=            -26.5797  XXZ=            -17.6828  XZZ=              9.6213  YZZ=              1.7082
  YYZ=            -22.0502  XYZ=             18.8879
 Hexadecapole moment (field-independent basis, Debye-Ang**3):
 XXXX=         -10495.5395 YYYY=          -2727.8447 ZZZZ=           -499.3941 XXXY=            487.0865
 XXXZ=           -366.7808 YYYX=            -96.6826 YYYZ=            -29.4732 ZZZX=              6.0811
 ZZZY=             -2.6866 XXYY=          -2468.1826 XXZZ=          -1988.1108 YYZZ=           -552.1973
 XXYZ=             71.0657 YYXZ=             54.6931 ZZXY=             15.8179
 N-N= 2.429890020291D+03 E-N=-8.015478643879D+03  KE= 1.340657108464D+03
 1\1\GINC-NODE045\FOpt\RM06\LANL2DZ\C17H18F3N3O3\SUPERCOMPUTO1\13-Aug-2
 020\0\\#opt M06/lanl2dz integral=ultrafine geom=connectivity\\Title Ca
 rd Required\\0,1\F,-8.0825838829,9.890944604,7.6237175452\F,-8.9454612
 165,5.2981124563,6.6159144502\F,-4.7289487752,11.5418479067,5.55667032
 64\O,-3.9987282211,5.4737591702,6.8910958114\O,-1.4339268512,6.5342149
 134,6.7470424695\O,-1.1847745314,8.6766789158,7.4682826359\N,-9.923233
 1583,7.904326037,7.1109849545\N,-12.480406328,8.8799172058,7.869461324
 4\N,-5.2307888055,9.3955194928,7.4888744372\C,-10.5108412183,9.0683433
 923,6.4317559275\C,-10.9324130319,6.9730536683,7.6371641421\C,-11.4558
 585228,9.8075791594,7.3740037042\C,-11.8775146871,7.7373575805,8.56569
 00231\C,-8.5720363096,7.6237292652,7.0997489904\C,-6.2016097209,8.3906
 843905,7.288887365\C,-7.5924933204,8.614240787,7.3145005629\C,-13.4952
 038821,9.5517754446,8.6793774169\C,-8.0486296676,6.3218371014,6.886333
 8979\C,-5.7606469382,7.0608381858,7.0767902674\C,-6.7049820222,6.03845
 95318,6.8887035878\C,-5.5613985472,10.8240540578,7.6743305995\C,-4.322
 7532304,6.6746195484,7.0346299096\C,-3.9081491292,9.0660191395,7.41257
 77813\C,-3.407717247,7.8037293709,7.1958075108\C,-5.9183445102,11.4978
 075757,6.3628771814\C,-1.935654562,7.7303040114,7.1643923575\H,-9.7245
 944442,9.7331792093,6.0698807114\H,-11.0904281743,8.707790885,5.567097
 9771\H,-11.5094077201,6.5299018395,6.8123030248\H,-10.4435161368,6.166
 4235963,8.1875854832\H,-10.867265416,10.2473324167,8.2086621292\H,-11.
 9526848303,10.6240661651,6.8356731921\H,-12.6783638741,7.0652033525,8.
 8976814486\H,-11.3114748064,8.0693123107,9.4643483786\H,-14.2756245201
 ,8.8379671465,8.9650431122\H,-13.9639677204,10.3533031046,8.0978307064
 \H,-13.0758349723,9.9958834137,9.6063241098\H,-6.338391914,5.031583071
 ,6.7096890078\H,-6.373241419,10.9368596476,8.3919091306\H,-4.673553971
 1,11.3126493324,8.0861989439\H,-3.2011730194,9.882832334,7.5355194914\
 H,-6.6748282906,10.9457252422,5.7977028679\H,-6.2462012218,12.52855262
 27,6.5265100569\H,-0.4518482322,6.5650213975,6.7513750483\\Version=ES6
 4L-G09RevD.01\State=1-A\HF=-1347.1551561\RMSD=3.611e-09\RMSF=6.139e-06
 \Dipole=-2.5543276,2.094033,0.972197\Quadrupole=-2.9711698,-0.2110808,
 3.1822506,-1.1188532,-1.4712612,0.6283426\PG=C01 [X(C17H18F3N3O3)]\\@


 IT IS A PROFOUNDLY ERRONEOUS TRUISM ... THAT WE SHOULD CULTIVATE
 THE HABIT OF THINKING OF WHAT WE ARE DOING.
 THE PRECISE OPPOSITE IS THE CASE.
 CIVILIZATION ADVANCES BY EXTENDING THE NUMBER OF IMPORTANT OPERATIONS
 WHICH WE CAN PERFORM WITHOUT THINKING ABOUT THEM.

                                    -- ALFRED NORTH WHITEHEAD
 Job cpu time:       0 days  5 hours  0 minutes 50.3 seconds.
 File lengths (MBytes):  RWF=     48 Int=      0 D2E=      0 Chk=      7 Scr=      1
 Normal termination of Gaussian 09 at Thu Aug 13 13:42:02 2020.
