 Entering Gaussian System, Link 0=g09
 Input=acpipemidico.gjf
 Output=acpipemidico.log
 Initial command:
 /usr/local/cluster_programs/g09/l1.exe "/tmp/scratch/63919.prometeo/Gau-25203.inp" -scrdir="/tmp/scratch/63919.prometeo/"
 Entering Link 1 = /usr/local/cluster_programs/g09/l1.exe PID=     25204.
  
 Copyright (c) 1988,1990,1992,1993,1995,1998,2003,2009,2013,
            Gaussian, Inc.  All Rights Reserved.
  
 This is part of the Gaussian(R) 09 program.  It is based on
 the Gaussian(R) 03 system (copyright 2003, Gaussian, Inc.),
 the Gaussian(R) 98 system (copyright 1998, Gaussian, Inc.),
 the Gaussian(R) 94 system (copyright 1995, Gaussian, Inc.),
 the Gaussian 92(TM) system (copyright 1992, Gaussian, Inc.),
 the Gaussian 90(TM) system (copyright 1990, Gaussian, Inc.),
 the Gaussian 88(TM) system (copyright 1988, Gaussian, Inc.),
 the Gaussian 86(TM) system (copyright 1986, Carnegie Mellon
 University), and the Gaussian 82(TM) system (copyright 1983,
 Carnegie Mellon University). Gaussian is a federally registered
 trademark of Gaussian, Inc.
  
 This software contains proprietary and confidential information,
 including trade secrets, belonging to Gaussian, Inc.
  
 This software is provided under written license and may be
 used, copied, transmitted, or stored only in accord with that
 written license.
  
 The following legend is applicable only to US Government
 contracts under FAR:
  
                    RESTRICTED RIGHTS LEGEND
  
 Use, reproduction and disclosure by the US Government is
 subject to restrictions as set forth in subparagraphs (a)
 and (c) of the Commercial Computer Software - Restricted
 Rights clause in FAR 52.227-19.
  
 Gaussian, Inc.
 340 Quinnipiac St., Bldg. 40, Wallingford CT 06492
  
  
 ---------------------------------------------------------------
 Warning -- This program may not be used in any manner that
 competes with the business of Gaussian, Inc. or will provide
 assistance to any competitor of Gaussian, Inc.  The licensee
 of this program is prohibited from giving any competitor of
 Gaussian, Inc. access to this program.  By using this program,
 the user acknowledges that Gaussian, Inc. is engaged in the
 business of creating and licensing software in the field of
 computational chemistry and represents and warrants to the
 licensee that it is not a competitor of Gaussian, Inc. and that
 it will not use this program in any manner prohibited above.
 ---------------------------------------------------------------
  

 Cite this work as:
 Gaussian 09, Revision D.01,
 M. J. Frisch, G. W. Trucks, H. B. Schlegel, G. E. Scuseria, 
 M. A. Robb, J. R. Cheeseman, G. Scalmani, V. Barone, B. Mennucci, 
 G. A. Petersson, H. Nakatsuji, M. Caricato, X. Li, H. P. Hratchian, 
 A. F. Izmaylov, J. Bloino, G. Zheng, J. L. Sonnenberg, M. Hada, 
 M. Ehara, K. Toyota, R. Fukuda, J. Hasegawa, M. Ishida, T. Nakajima, 
 Y. Honda, O. Kitao, H. Nakai, T. Vreven, J. A. Montgomery, Jr., 
 J. E. Peralta, F. Ogliaro, M. Bearpark, J. J. Heyd, E. Brothers, 
 K. N. Kudin, V. N. Staroverov, T. Keith, R. Kobayashi, J. Normand, 
 K. Raghavachari, A. Rendell, J. C. Burant, S. S. Iyengar, J. Tomasi, 
 M. Cossi, N. Rega, J. M. Millam, M. Klene, J. E. Knox, J. B. Cross, 
 V. Bakken, C. Adamo, J. Jaramillo, R. Gomperts, R. E. Stratmann, 
 O. Yazyev, A. J. Austin, R. Cammi, C. Pomelli, J. W. Ochterski, 
 R. L. Martin, K. Morokuma, V. G. Zakrzewski, G. A. Voth, 
 P. Salvador, J. J. Dannenberg, S. Dapprich, A. D. Daniels, 
 O. Farkas, J. B. Foresman, J. V. Ortiz, J. Cioslowski, 
 and D. J. Fox, Gaussian, Inc., Wallingford CT, 2013.
 
 ******************************************
 Gaussian 09:  ES64L-G09RevD.01 24-Apr-2013
                 6-Jul-2020 
 ******************************************
 %nprocshared=20
 Will use up to   20 processors via shared memory.
 -----------------------------------
 # opt b3lyp/3-21g geom=connectivity
 -----------------------------------
 1/14=-1,18=20,19=15,26=3,38=1,57=2/1,3;
 2/9=110,12=2,17=6,18=5,40=1/2;
 3/5=5,11=2,16=1,25=1,30=1,71=1,74=-5/1,2,3;
 4//1;
 5/5=2,38=5/2;
 6/7=2,8=2,9=2,10=2,28=1/1;
 7//1,2,3,16;
 1/14=-1,18=20,19=15,26=3/3(2);
 2/9=110/2;
 99//99;
 2/9=110/2;
 3/5=5,11=2,16=1,25=1,30=1,71=1,74=-5/1,2,3;
 4/5=5,16=3,69=1/1;
 5/5=2,38=5/2;
 7//1,2,3,16;
 1/14=-1,18=20,19=15,26=3/3(-5);
 2/9=110/2;
 6/7=2,8=2,9=2,10=2,19=2,28=1/1;
 99/9=1/99;
 -------------------
 Title Card Required
 -------------------
 Symbolic Z-matrix:
 Charge =  0 Multiplicity = 1
 O(PDBName=O1,ResName=MOL,ResNum=1) 0    -6.047    -5.114     7.688    L 
 O(PDBName=O2,ResName=MOL,ResNum=1) 0    -3.569    -6.234     7.244    L 
 O(PDBName=O3,ResName=MOL,ResNum=1) 0    -3.472    -8.476     6.953    L 
 N(PDBName=N4,ResName=MOL,ResNum=1) 0    -11.915   -7.248     7.024    L 
 N(PDBName=N5,ResName=MOL,ResNum=1) 0    -14.694   -7.684     7.19     L 
 N(PDBName=N6,ResName=MOL,ResNum=1) 0    -7.549    -8.917     7.06     L 
 N(PDBName=N7,ResName=MOL,ResNum=1) 0    -9.744    -8.102     7.087    L 
 N(PDBName=N8,ResName=MOL,ResNum=1) 0    -10.169   -5.733     7.309    L 
 C(PDBName=C9,ResName=MOL,ResNum=1) 0    -12.466   -8.575     6.766    L 
 C(PDBName=C10,ResName=MOL,ResNum=1) 0    -12.85    -6.139     6.826    L 
 C(PDBName=C11,ResName=MOL,ResNum=1) 0    -13.773   -8.764     7.531    L 
 C(PDBName=C12,ResName=MOL,ResNum=1) 0    -14.145   -6.39      7.586    L 
 C(PDBName=C13,ResName=MOL,ResNum=1) 0    -10.572   -7.031     7.143    L 
 C(PDBName=C14,ResName=MOL,ResNum=1) 0    -8.432    -7.844     7.177    L 
 C(PDBName=C15,ResName=MOL,ResNum=1) 0    -7.902    -6.554     7.356    L 
 C(PDBName=C16,ResName=MOL,ResNum=1) 0    -8.048    -10.294    6.908    L 
 C(PDBName=C17,ResName=MOL,ResNum=1) 0    -8.861    -5.532     7.421    L 
 C(PDBName=C18,ResName=MOL,ResNum=1) 0    -6.209    -8.679     7.074    L 
 C(PDBName=C19,ResName=MOL,ResNum=1) 0    -6.462    -6.262     7.45     L 
 C(PDBName=C20,ResName=MOL,ResNum=1) 0    -5.621    -7.449     7.231    L 
 C(PDBName=C21,ResName=MOL,ResNum=1) 0    -8.241    -11.004    8.24     L 
 C(PDBName=C22,ResName=MOL,ResNum=1) 0    -4.146    -7.457     7.135    L 
 H(PDBName=H23,ResName=MOL,ResNum=1) 0    -11.723   -9.323     7.061    L 
 H(PDBName=H24,ResName=MOL,ResNum=1) 0    -12.664   -8.685     5.684    L 
 H(PDBName=H25,ResName=MOL,ResNum=1) 0    -13.076   -6.05      5.747    L 
 H(PDBName=H26,ResName=MOL,ResNum=1) 0    -12.362   -5.219     7.16     L 
 H(PDBName=H27,ResName=MOL,ResNum=1) 0    -14.222   -9.726     7.244    L 
 H(PDBName=H28,ResName=MOL,ResNum=1) 0    -13.545   -8.803     8.62     L 
 H(PDBName=H29,ResName=MOL,ResNum=1) 0    -13.935   -6.332     8.676    L 
 H(PDBName=H30,ResName=MOL,ResNum=1) 0    -14.865   -5.597     7.336    L 
 H(PDBName=H31,ResName=MOL,ResNum=1) 0    -15.622   -7.839     7.601    L 
 H(PDBName=H32,ResName=MOL,ResNum=1) 0    -8.997    -10.227    6.363    L 
 H(PDBName=H33,ResName=MOL,ResNum=1) 0    -7.323    -10.828    6.279    L 
 H(PDBName=H34,ResName=MOL,ResNum=1) 0    -8.515    -4.503     7.56     L 
 H(PDBName=H35,ResName=MOL,ResNum=1) 0    -5.57     -9.552     6.933    L 
 H(PDBName=H36,ResName=MOL,ResNum=1) 0    -7.296    -11.077    8.796    L 
 H(PDBName=H37,ResName=MOL,ResNum=1) 0    -8.973    -10.474    8.864    L 
 H(PDBName=H38,ResName=MOL,ResNum=1) 0    -8.612    -12.023    8.067    L 
 H(PDBName=H39,ResName=MOL,ResNum=1) 0    -2.604    -6.399     7.134    L 
 
 Center=     -9.61002564     -7.90100000      7.29548718
 Residue   1 PDB Number     1_0 MOL charge    0.00000000 layers R        AvRTP=      0.00000000    270.00000000     26.56505118

 GradGradGradGradGradGradGradGradGradGradGradGradGradGradGradGradGradGrad
 Berny optimization.
 Initialization pass.
                           ----------------------------
                           !    Initial Parameters    !
                           ! (Angstroms and Degrees)  !
 --------------------------                            --------------------------
 ! Name  Definition              Value          Derivative Info.                !
 --------------------------------------------------------------------------------
 ! R1    R(1,19)                 1.2437         estimate D2E/DX2                !
 ! R2    R(2,22)                 1.3567         estimate D2E/DX2                !
 ! R3    R(2,39)                 0.9852         estimate D2E/DX2                !
 ! R4    R(3,22)                 1.2352         estimate D2E/DX2                !
 ! R5    R(4,9)                  1.4598         estimate D2E/DX2                !
 ! R6    R(4,10)                 1.464          estimate D2E/DX2                !
 ! R7    R(4,13)                 1.3656         estimate D2E/DX2                !
 ! R8    R(5,11)                 1.4598         estimate D2E/DX2                !
 ! R9    R(5,12)                 1.4604         estimate D2E/DX2                !
 ! R10   R(5,31)                 1.0267         estimate D2E/DX2                !
 ! R11   R(6,14)                 1.3945         estimate D2E/DX2                !
 ! R12   R(6,16)                 1.4725         estimate D2E/DX2                !
 ! R13   R(6,18)                 1.361          estimate D2E/DX2                !
 ! R14   R(7,13)                 1.3549         estimate D2E/DX2                !
 ! R15   R(7,14)                 1.3402         estimate D2E/DX2                !
 ! R16   R(8,13)                 1.3692         estimate D2E/DX2                !
 ! R17   R(8,17)                 1.3281         estimate D2E/DX2                !
 ! R18   R(9,11)                 1.5262         estimate D2E/DX2                !
 ! R19   R(9,23)                 1.0948         estimate D2E/DX2                !
 ! R20   R(9,24)                 1.1055         estimate D2E/DX2                !
 ! R21   R(10,12)                1.5224         estimate D2E/DX2                !
 ! R22   R(10,25)                1.106          estimate D2E/DX2                !
 ! R23   R(10,26)                1.0937         estimate D2E/DX2                !
 ! R24   R(11,27)                1.0997         estimate D2E/DX2                !
 ! R25   R(11,28)                1.1133         estimate D2E/DX2                !
 ! R26   R(12,29)                1.1116         estimate D2E/DX2                !
 ! R27   R(12,30)                1.0999         estimate D2E/DX2                !
 ! R28   R(14,15)                1.4061         estimate D2E/DX2                !
 ! R29   R(15,17)                1.403          estimate D2E/DX2                !
 ! R30   R(15,19)                1.4723         estimate D2E/DX2                !
 ! R31   R(16,21)                1.5217         estimate D2E/DX2                !
 ! R32   R(16,32)                1.0964         estimate D2E/DX2                !
 ! R33   R(16,33)                1.0984         estimate D2E/DX2                !
 ! R34   R(17,34)                1.0945         estimate D2E/DX2                !
 ! R35   R(18,20)                1.3723         estimate D2E/DX2                !
 ! R36   R(18,35)                1.091          estimate D2E/DX2                !
 ! R37   R(19,20)                1.4711         estimate D2E/DX2                !
 ! R38   R(20,22)                1.4781         estimate D2E/DX2                !
 ! R39   R(21,36)                1.0989         estimate D2E/DX2                !
 ! R40   R(21,37)                1.0982         estimate D2E/DX2                !
 ! R41   R(21,38)                1.0981         estimate D2E/DX2                !
 ! A1    A(22,2,39)            104.8713         estimate D2E/DX2                !
 ! A2    A(9,4,10)             115.0638         estimate D2E/DX2                !
 ! A3    A(9,4,13)             122.0756         estimate D2E/DX2                !
 ! A4    A(10,4,13)            121.2986         estimate D2E/DX2                !
 ! A5    A(11,5,12)            110.7955         estimate D2E/DX2                !
 ! A6    A(11,5,31)            111.4113         estimate D2E/DX2                !
 ! A7    A(12,5,31)            111.4083         estimate D2E/DX2                !
 ! A8    A(14,6,16)            120.9054         estimate D2E/DX2                !
 ! A9    A(14,6,18)            119.2084         estimate D2E/DX2                !
 ! A10   A(16,6,18)            119.8829         estimate D2E/DX2                !
 ! A11   A(13,7,14)            116.3162         estimate D2E/DX2                !
 ! A12   A(13,8,17)            116.3321         estimate D2E/DX2                !
 ! A13   A(4,9,11)             110.3175         estimate D2E/DX2                !
 ! A14   A(4,9,23)             108.499          estimate D2E/DX2                !
 ! A15   A(4,9,24)             109.332          estimate D2E/DX2                !
 ! A16   A(11,9,23)            111.194          estimate D2E/DX2                !
 ! A17   A(11,9,24)            108.9599         estimate D2E/DX2                !
 ! A18   A(23,9,24)            108.5004         estimate D2E/DX2                !
 ! A19   A(4,10,12)            110.54           estimate D2E/DX2                !
 ! A20   A(4,10,25)            108.8689         estimate D2E/DX2                !
 ! A21   A(4,10,26)            108.1164         estimate D2E/DX2                !
 ! A22   A(12,10,25)           109.0552         estimate D2E/DX2                !
 ! A23   A(12,10,26)           111.4567         estimate D2E/DX2                !
 ! A24   A(25,10,26)           108.7492         estimate D2E/DX2                !
 ! A25   A(5,11,9)             109.3661         estimate D2E/DX2                !
 ! A26   A(5,11,27)            109.1855         estimate D2E/DX2                !
 ! A27   A(5,11,28)            112.5587         estimate D2E/DX2                !
 ! A28   A(9,11,27)            109.0967         estimate D2E/DX2                !
 ! A29   A(9,11,28)            108.6186         estimate D2E/DX2                !
 ! A30   A(27,11,28)           107.9537         estimate D2E/DX2                !
 ! A31   A(5,12,10)            109.2996         estimate D2E/DX2                !
 ! A32   A(5,12,29)            112.5298         estimate D2E/DX2                !
 ! A33   A(5,12,30)            109.337          estimate D2E/DX2                !
 ! A34   A(10,12,29)           108.6767         estimate D2E/DX2                !
 ! A35   A(10,12,30)           108.9353         estimate D2E/DX2                !
 ! A36   A(29,12,30)           107.9953         estimate D2E/DX2                !
 ! A37   A(4,13,7)             118.1503         estimate D2E/DX2                !
 ! A38   A(4,13,8)             116.7858         estimate D2E/DX2                !
 ! A39   A(7,13,8)             125.0638         estimate D2E/DX2                !
 ! A40   A(6,14,7)             117.7831         estimate D2E/DX2                !
 ! A41   A(6,14,15)            118.5501         estimate D2E/DX2                !
 ! A42   A(7,14,15)            123.655          estimate D2E/DX2                !
 ! A43   A(14,15,17)           114.6174         estimate D2E/DX2                !
 ! A44   A(14,15,19)           123.9692         estimate D2E/DX2                !
 ! A45   A(17,15,19)           121.4067         estimate D2E/DX2                !
 ! A46   A(6,16,21)            112.8891         estimate D2E/DX2                !
 ! A47   A(6,16,32)            106.7075         estimate D2E/DX2                !
 ! A48   A(6,16,33)            106.8624         estimate D2E/DX2                !
 ! A49   A(21,16,32)           110.7225         estimate D2E/DX2                !
 ! A50   A(21,16,33)           110.9867         estimate D2E/DX2                !
 ! A51   A(32,16,33)           108.4437         estimate D2E/DX2                !
 ! A52   A(8,17,15)            123.99           estimate D2E/DX2                !
 ! A53   A(8,17,34)            117.6684         estimate D2E/DX2                !
 ! A54   A(15,17,34)           118.3371         estimate D2E/DX2                !
 ! A55   A(6,18,20)            125.4329         estimate D2E/DX2                !
 ! A56   A(6,18,35)            115.8096         estimate D2E/DX2                !
 ! A57   A(20,18,35)           118.7516         estimate D2E/DX2                !
 ! A58   A(1,19,15)            121.4427         estimate D2E/DX2                !
 ! A59   A(1,19,20)            125.6275         estimate D2E/DX2                !
 ! A60   A(15,19,20)           112.9294         estimate D2E/DX2                !
 ! A61   A(18,20,19)           119.6875         estimate D2E/DX2                !
 ! A62   A(18,20,22)           114.5367         estimate D2E/DX2                !
 ! A63   A(19,20,22)           125.767          estimate D2E/DX2                !
 ! A64   A(16,21,36)           111.3968         estimate D2E/DX2                !
 ! A65   A(16,21,37)           110.899          estimate D2E/DX2                !
 ! A66   A(16,21,38)           109.7493         estimate D2E/DX2                !
 ! A67   A(36,21,37)           108.5283         estimate D2E/DX2                !
 ! A68   A(36,21,38)           107.9751         estimate D2E/DX2                !
 ! A69   A(37,21,38)           108.1885         estimate D2E/DX2                !
 ! A70   A(2,22,3)             121.5637         estimate D2E/DX2                !
 ! A71   A(2,22,20)            114.4757         estimate D2E/DX2                !
 ! A72   A(3,22,20)            123.954          estimate D2E/DX2                !
 ! D1    D(39,2,22,3)            0.7707         estimate D2E/DX2                !
 ! D2    D(39,2,22,20)        -178.3244         estimate D2E/DX2                !
 ! D3    D(10,4,9,11)          -51.1873         estimate D2E/DX2                !
 ! D4    D(10,4,9,23)         -173.2195         estimate D2E/DX2                !
 ! D5    D(10,4,9,24)           68.6183         estimate D2E/DX2                !
 ! D6    D(13,4,9,11)          142.9047         estimate D2E/DX2                !
 ! D7    D(13,4,9,23)           20.8725         estimate D2E/DX2                !
 ! D8    D(13,4,9,24)          -97.2897         estimate D2E/DX2                !
 ! D9    D(9,4,10,12)           51.2147         estimate D2E/DX2                !
 ! D10   D(9,4,10,25)          -68.5538         estimate D2E/DX2                !
 ! D11   D(9,4,10,26)          173.4629         estimate D2E/DX2                !
 ! D12   D(13,4,10,12)        -142.7574         estimate D2E/DX2                !
 ! D13   D(13,4,10,25)          97.4741         estimate D2E/DX2                !
 ! D14   D(13,4,10,26)         -20.5092         estimate D2E/DX2                !
 ! D15   D(9,4,13,7)            -3.5049         estimate D2E/DX2                !
 ! D16   D(9,4,13,8)           176.3978         estimate D2E/DX2                !
 ! D17   D(10,4,13,7)         -168.5466         estimate D2E/DX2                !
 ! D18   D(10,4,13,8)           11.3561         estimate D2E/DX2                !
 ! D19   D(12,5,11,9)          -62.0418         estimate D2E/DX2                !
 ! D20   D(12,5,11,27)         178.6517         estimate D2E/DX2                !
 ! D21   D(12,5,11,28)          58.7865         estimate D2E/DX2                !
 ! D22   D(31,5,11,9)          173.3256         estimate D2E/DX2                !
 ! D23   D(31,5,11,27)          54.0191         estimate D2E/DX2                !
 ! D24   D(31,5,11,28)         -65.8461         estimate D2E/DX2                !
 ! D25   D(11,5,12,10)          61.911          estimate D2E/DX2                !
 ! D26   D(11,5,12,29)         -58.9258         estimate D2E/DX2                !
 ! D27   D(11,5,12,30)        -178.928          estimate D2E/DX2                !
 ! D28   D(31,5,12,10)        -173.4548         estimate D2E/DX2                !
 ! D29   D(31,5,12,29)          65.7084         estimate D2E/DX2                !
 ! D30   D(31,5,12,30)         -54.2937         estimate D2E/DX2                !
 ! D31   D(16,6,14,7)           -2.8899         estimate D2E/DX2                !
 ! D32   D(16,6,14,15)         178.3152         estimate D2E/DX2                !
 ! D33   D(18,6,14,7)          176.4536         estimate D2E/DX2                !
 ! D34   D(18,6,14,15)          -2.3413         estimate D2E/DX2                !
 ! D35   D(14,6,16,21)         -90.3976         estimate D2E/DX2                !
 ! D36   D(14,6,16,32)          31.4551         estimate D2E/DX2                !
 ! D37   D(14,6,16,33)         147.3128         estimate D2E/DX2                !
 ! D38   D(18,6,16,21)          90.2633         estimate D2E/DX2                !
 ! D39   D(18,6,16,32)        -147.884          estimate D2E/DX2                !
 ! D40   D(18,6,16,33)         -32.0263         estimate D2E/DX2                !
 ! D41   D(14,6,18,20)           1.8013         estimate D2E/DX2                !
 ! D42   D(14,6,18,35)        -177.305          estimate D2E/DX2                !
 ! D43   D(16,6,18,20)        -178.8484         estimate D2E/DX2                !
 ! D44   D(16,6,18,35)           2.0453         estimate D2E/DX2                !
 ! D45   D(14,7,13,4)          178.5242         estimate D2E/DX2                !
 ! D46   D(14,7,13,8)           -1.3697         estimate D2E/DX2                !
 ! D47   D(13,7,14,6)         -177.0611         estimate D2E/DX2                !
 ! D48   D(13,7,14,15)           1.6672         estimate D2E/DX2                !
 ! D49   D(17,8,13,4)         -179.866          estimate D2E/DX2                !
 ! D50   D(17,8,13,7)            0.0291         estimate D2E/DX2                !
 ! D51   D(13,8,17,15)           1.1102         estimate D2E/DX2                !
 ! D52   D(13,8,17,34)        -179.6737         estimate D2E/DX2                !
 ! D53   D(4,9,11,5)            54.9376         estimate D2E/DX2                !
 ! D54   D(4,9,11,27)          174.2989         estimate D2E/DX2                !
 ! D55   D(4,9,11,28)          -68.2588         estimate D2E/DX2                !
 ! D56   D(23,9,11,5)          175.3653         estimate D2E/DX2                !
 ! D57   D(23,9,11,27)         -65.2734         estimate D2E/DX2                !
 ! D58   D(23,9,11,28)          52.1689         estimate D2E/DX2                !
 ! D59   D(24,9,11,5)          -65.0925         estimate D2E/DX2                !
 ! D60   D(24,9,11,27)          54.2688         estimate D2E/DX2                !
 ! D61   D(24,9,11,28)         171.7111         estimate D2E/DX2                !
 ! D62   D(4,10,12,5)          -54.7239         estimate D2E/DX2                !
 ! D63   D(4,10,12,29)          68.4319         estimate D2E/DX2                !
 ! D64   D(4,10,12,30)        -174.1335         estimate D2E/DX2                !
 ! D65   D(25,10,12,5)          64.9325         estimate D2E/DX2                !
 ! D66   D(25,10,12,29)       -171.9117         estimate D2E/DX2                !
 ! D67   D(25,10,12,30)        -54.4771         estimate D2E/DX2                !
 ! D68   D(26,10,12,5)        -174.9921         estimate D2E/DX2                !
 ! D69   D(26,10,12,29)        -51.8362         estimate D2E/DX2                !
 ! D70   D(26,10,12,30)         65.5983         estimate D2E/DX2                !
 ! D71   D(6,14,15,17)         178.0578         estimate D2E/DX2                !
 ! D72   D(6,14,15,19)          -1.009          estimate D2E/DX2                !
 ! D73   D(7,14,15,17)          -0.6613         estimate D2E/DX2                !
 ! D74   D(7,14,15,19)        -179.7281         estimate D2E/DX2                !
 ! D75   D(14,15,17,8)          -0.8178         estimate D2E/DX2                !
 ! D76   D(14,15,17,34)        179.9709         estimate D2E/DX2                !
 ! D77   D(19,15,17,8)         178.2754         estimate D2E/DX2                !
 ! D78   D(19,15,17,34)         -0.9359         estimate D2E/DX2                !
 ! D79   D(14,15,19,1)        -175.6578         estimate D2E/DX2                !
 ! D80   D(14,15,19,20)          4.5398         estimate D2E/DX2                !
 ! D81   D(17,15,19,1)           5.3363         estimate D2E/DX2                !
 ! D82   D(17,15,19,20)       -174.4661         estimate D2E/DX2                !
 ! D83   D(6,16,21,36)         -60.4191         estimate D2E/DX2                !
 ! D84   D(6,16,21,37)          60.575          estimate D2E/DX2                !
 ! D85   D(6,16,21,38)        -179.9465         estimate D2E/DX2                !
 ! D86   D(32,16,21,36)       -179.981          estimate D2E/DX2                !
 ! D87   D(32,16,21,37)        -58.9869         estimate D2E/DX2                !
 ! D88   D(32,16,21,38)         60.4916         estimate D2E/DX2                !
 ! D89   D(33,16,21,36)         59.5274         estimate D2E/DX2                !
 ! D90   D(33,16,21,37)       -179.4785         estimate D2E/DX2                !
 ! D91   D(33,16,21,38)        -60.0            estimate D2E/DX2                !
 ! D92   D(6,18,20,19)           2.1632         estimate D2E/DX2                !
 ! D93   D(6,18,20,22)        -176.8217         estimate D2E/DX2                !
 ! D94   D(35,18,20,19)       -178.7545         estimate D2E/DX2                !
 ! D95   D(35,18,20,22)          2.2606         estimate D2E/DX2                !
 ! D96   D(1,19,20,18)         175.2328         estimate D2E/DX2                !
 ! D97   D(1,19,20,22)          -5.9053         estimate D2E/DX2                !
 ! D98   D(15,19,20,18)         -4.9746         estimate D2E/DX2                !
 ! D99   D(15,19,20,22)        173.8873         estimate D2E/DX2                !
 ! D100  D(18,20,22,2)         177.8224         estimate D2E/DX2                !
 ! D101  D(18,20,22,3)          -1.2482         estimate D2E/DX2                !
 ! D102  D(19,20,22,2)          -1.0908         estimate D2E/DX2                !
 ! D103  D(19,20,22,3)         179.8387         estimate D2E/DX2                !
 --------------------------------------------------------------------------------
 Trust Radius=3.00D-01 FncErr=1.00D-07 GrdErr=1.00D-06
 Number of steps in this run=    226 maximum allowed number of steps=    234.
 GradGradGradGradGradGradGradGradGradGradGradGradGradGradGradGradGradGrad

                          Input orientation:                          
 ---------------------------------------------------------------------
 Center     Atomic      Atomic             Coordinates (Angstroms)
 Number     Number       Type             X           Y           Z
 ---------------------------------------------------------------------
      1          8           0       -6.047000   -5.114000    7.688000
      2          8           0       -3.569000   -6.234000    7.244000
      3          8           0       -3.472000   -8.476000    6.953000
      4          7           0      -11.915000   -7.248000    7.024000
      5          7           0      -14.694000   -7.684000    7.190000
      6          7           0       -7.549000   -8.917000    7.060000
      7          7           0       -9.744000   -8.102000    7.087000
      8          7           0      -10.169000   -5.733000    7.309000
      9          6           0      -12.466000   -8.575000    6.766000
     10          6           0      -12.850000   -6.139000    6.826000
     11          6           0      -13.773000   -8.764000    7.531000
     12          6           0      -14.145000   -6.390000    7.586000
     13          6           0      -10.572000   -7.031000    7.143000
     14          6           0       -8.432000   -7.844000    7.177000
     15          6           0       -7.902000   -6.554000    7.356000
     16          6           0       -8.048000  -10.294000    6.908000
     17          6           0       -8.861000   -5.532000    7.421000
     18          6           0       -6.209000   -8.679000    7.074000
     19          6           0       -6.462000   -6.262000    7.450000
     20          6           0       -5.621000   -7.449000    7.231000
     21          6           0       -8.241000  -11.004000    8.240000
     22          6           0       -4.146000   -7.457000    7.135000
     23          1           0      -11.723000   -9.323000    7.061000
     24          1           0      -12.664000   -8.685000    5.684000
     25          1           0      -13.076000   -6.050000    5.747000
     26          1           0      -12.362000   -5.219000    7.160000
     27          1           0      -14.222000   -9.726000    7.244000
     28          1           0      -13.545000   -8.803000    8.620000
     29          1           0      -13.935000   -6.332000    8.676000
     30          1           0      -14.865000   -5.597000    7.336000
     31          1           0      -15.622000   -7.839000    7.601000
     32          1           0       -8.997000  -10.227000    6.363000
     33          1           0       -7.323000  -10.828000    6.279000
     34          1           0       -8.515000   -4.503000    7.560000
     35          1           0       -5.570000   -9.552000    6.933000
     36          1           0       -7.296000  -11.077000    8.796000
     37          1           0       -8.973000  -10.474000    8.864000
     38          1           0       -8.612000  -12.023000    8.067000
     39          1           0       -2.604000   -6.399000    7.134000
 ---------------------------------------------------------------------
                    Distance matrix (angstroms):
                    1          2          3          4          5
     1  O    0.000000
     2  O    2.755362   0.000000
     3  O    4.298127   2.262886   0.000000
     4  N    6.279194   8.410250   8.532132   0.000000
     5  N    9.034573  11.219226  11.252409   2.817888   0.000000
     6  N    4.136810   4.803410   4.102177   4.674271   7.251773
     7  N    4.791362   6.453270   6.284570   2.333779   4.968685
     8  N    4.185413   6.619307   7.245729   2.329156   4.929116
     9  C    7.350658   9.212240   8.996489   1.459827   2.436728
    10  C    6.933576   9.290894   9.665639   1.464005   2.433076
    11  C    8.546240  10.516886  10.321222   2.451014   1.459768
    12  C    8.198548  10.582678  10.893347   2.454569   1.460361
    13  C    4.944445   7.048930   7.248043   1.365613   4.173668
    14  C    3.660908   5.123022   5.005117   3.536936   6.264057
    15  C    2.371676   4.346244   4.845760   4.086077   6.887359
    16  C    5.607566   6.054580   4.924117   4.923948   7.145694
    17  C    2.857378   5.341292   6.158529   3.525504   6.221604
    18  C    3.621114   3.602294   2.747184   5.882916   8.543928
    19  C    1.243693   2.900460   3.753519   5.557777   8.357961
    20  C    2.417137   2.384764   2.397960   6.300610   9.076135
    21  C    6.309551   6.750741   5.548920   5.393002   7.332538
    22  C    3.067452   1.356665   1.235217   7.772603  10.550586
    23  H    7.094067   8.721418   8.295063   2.084192   3.395556
    24  H    7.781564   9.547776   9.281536   2.102753   2.718628
    25  H    7.351899   9.625898   9.978814   2.100917   2.714798
    26  H    6.337905   8.851787   9.470111   2.082101   3.393427
    27  H    9.396718  11.210730  10.826342   3.392806   2.096536
    28  H    8.408172  10.392965  10.215241   2.760823   2.148782
    29  H    8.042401  10.464902  10.818495   2.765603   2.147599
    30  H    8.838230  11.314321  11.757371   3.394944   2.099077
    31  H    9.955592  12.164632  12.183931   3.797902   1.026708
    32  H    6.049867   6.795837   5.825781   4.222095   6.293376
    33  H    6.021898   6.010705   4.562497   5.870084   8.065129
    34  H    2.545728   5.249679   6.448645   4.402536   6.959576
    35  H    4.526963   3.887139   2.357919   6.750979   9.316805
    36  H    6.192337   6.305068   4.978436   6.255908   8.295908
    37  H    6.218847   7.057281   6.156698   4.737936   6.581506
    38  H    7.379509   7.721509   6.343643   5.899007   7.522418
    39  H    3.716502   0.985165   2.258343   9.350274  12.158226
                    6          7          8          9         10
     6  N    0.000000
     7  N    2.341576   0.000000
     8  N    4.130891   2.417037   0.000000
     9  C    4.937640   2.781376   3.694323   0.000000
    10  C    5.989377   3.683575   2.754249   2.466810   0.000000
    11  C    6.243671   4.107094   4.714346   1.526170   2.870467
    12  C    7.083052   4.748552   4.039425   2.875007   1.522375
    13  C    3.564045   1.354903   1.369222   2.472509   2.466868
    14  C    1.394528   1.340152   2.736953   4.120247   4.748573
    15  C    2.407487   2.421080   2.411543   5.026195   4.993579
    16  C    1.472492   2.777287   5.046005   4.742768   6.350587
    17  C    3.648272   2.737909   1.328085   4.762867   4.078553
    18  C    1.361044   3.581804   4.941229   6.265439   7.114491
    19  C    2.895288   3.780065   3.747208   6.470382   6.419583
    20  C    2.429290   4.176874   4.861589   6.952563   7.357891
    21  C    2.495362   3.465548   5.689234   5.091497   6.849124
    22  C    3.703732   5.635240   6.267295   8.402886   8.808645
    23  H    4.193699   2.325502   3.919760   1.094796   3.385736
    24  H    5.301927   3.291610   4.192846   1.105454   2.796583
    25  H    6.363284   4.136246   3.315265   2.790356   1.106001
    26  H    6.070434   3.894989   2.257354   3.380649   1.093664
    27  H    6.724378   4.765974   5.689911   2.153328   3.863118
    28  H    6.196661   4.158015   4.747736   2.157207   3.286085
    29  H    7.076346   4.818952   4.050956   3.291977   2.153363
    30  H    8.038808   5.706283   4.698047   3.866340   2.148043
    31  H    8.162603   5.906289   5.852838   3.346529   3.342844
    32  H    2.073310   2.365969   4.739677   3.863350   5.636641
    33  H    2.076766   3.734325   5.926183   5.635923   7.268677
    34  H    4.546048   3.832358   2.076443   5.729051   4.691213
    35  H    2.082257   4.421368   5.989736   6.966867   8.041046
    36  H    2.782679   4.214737   6.246890   6.091782   7.688411
    37  H    2.776048   3.062442   5.130840   4.495426   6.162532
    38  H    3.433840   4.197150   6.524026   5.332412   7.356778
    39  H    5.549669   7.340437   7.596276  10.105911  10.253925
                   11         12         13         14         15
    11  C    0.000000
    12  C    2.403598   0.000000
    13  C    3.660633   3.656974   0.000000
    14  C    5.431206   5.909295   2.289481   0.000000
    15  C    6.275617   6.249388   2.720625   1.406073   0.000000
    16  C    5.958578   7.271472   4.131945   2.494457   3.769565
    17  C    5.880958   5.355749   2.291682   2.364090   1.402993
    18  C    7.578270   8.275371   4.664379   2.376881   2.731556
    19  C    7.727696   7.685270   4.192578   2.541290   1.472311
    20  C    8.262828   8.596865   4.969393   2.839131   2.453490
    21  C    6.010267   7.521564   4.735156   3.339469   4.549602
    22  C    9.723384  10.065878   6.440110   4.303641   3.869339
    23  H    2.176208   3.839817   2.566084   3.609928   4.728047
    24  H    2.155813   3.328361   3.039878   4.565759   5.478448
    25  H    3.321786   2.154131   3.030048   5.179775   5.441799
    26  H    3.833482   2.175271   2.547103   4.726078   4.659640
    27  H    1.099734   3.354369   4.538251   6.088556   7.072236
    28  H    1.113295   2.692903   3.763010   5.398583   6.204768
    29  H    2.692934   1.111559   3.761444   5.900522   6.179707
    30  H    3.355649   1.099886   4.530282   6.815994   7.028486
    31  H    2.068653   2.069144   5.134698   7.202493   7.830048
    32  H    5.129792   6.536069   3.647388   2.580796   3.959293
    33  H    6.886951   8.242802   5.071460   3.307649   4.445475
    34  H    6.767830   5.937874   3.285715   3.363905   2.150346
    35  H    8.262430   9.162711   5.605314   3.341832   3.821669
    36  H    6.992977   8.386946   5.462115   3.789980   4.785224
    37  H    5.266972   6.712818   4.168080   3.171049   4.334456
    38  H    6.127340   7.910508   5.442007   4.276510   5.560538
    39  H   11.423546  11.549851   7.993030   6.004620   5.304914
                   16         17         18         19         20
    16  C    0.000000
    17  C    4.858064   0.000000
    18  C    2.453100   4.130027   0.000000
    19  C    4.366484   2.507776   2.459121   0.000000
    20  C    3.753489   3.769428   1.372331   1.471126   0.000000
    21  C    1.521701   5.567580   3.300637   5.125964   4.529957
    22  C    4.829669   5.100848   2.398536   2.625092   1.478142
    23  H    3.804192   4.763646   5.551495   6.099112   6.385545
    24  H    5.039297   5.236543   6.602966   6.888722   7.316061
    25  H    6.681335   4.564737   7.471831   6.833019   7.728938
    26  H    6.665563   3.524641   7.059632   5.998496   7.100635
    27  H    6.209170   6.808912   8.082900   8.500549   8.897309
    28  H    5.947355   5.837542   7.498159   7.615410   8.157966
    29  H    7.313005   5.287769   8.232004   7.573223   8.512245
    30  H    8.289541   6.004953   9.192046   8.430043   9.428280
    31  H    7.992043   7.146032   9.465088   9.295985  10.015438
    32  H    1.096410   4.814653   3.267226   4.830012   4.457363
    33  H    1.098372   5.631805   2.547788   4.791755   3.901378
    34  H    5.846270   1.094476   4.795082   2.705733   4.142752
    35  H    2.586827   5.218163   1.091023   3.447761   2.124621
    36  H    2.177874   5.923418   3.145991   5.068678   4.291530
    37  H    2.171166   5.149578   3.750443   5.103475   4.801377
    38  H    2.156576   6.527817   4.235894   6.179993   5.528694
    39  H    6.697704   6.323299   4.265914   3.873343   3.195966
                   21         22         23         24         25
    21  C    0.000000
    22  C    5.529128   0.000000
    23  H    4.042292   7.803740   0.000000
    24  H    5.610154   8.727526   1.785680   0.000000
    25  H    7.357608   9.146097   3.777530   2.667759   0.000000
    26  H    7.184377   8.515393   4.154629   3.779277   1.787995
    27  H    6.196585  10.328892   2.537893   2.438164   4.131259
    28  H    5.755104   9.610314   2.453684   3.067602   4.006632
    29  H    7.378300   9.973205   4.055521   4.012993   3.065362
    30  H    8.598270  10.881037   4.881687   4.136333   2.435293
    31  H    8.056346  11.491808   4.206668   3.624965   3.622148
    32  H    2.167578   5.639245   2.955587   4.035554   5.870692
    33  H    2.172377   4.710595   4.715565   5.785564   7.497287
    34  H    6.542207   5.291021   5.811425   6.182451   5.146154
    35  H    3.309198   2.541182   6.158590   7.255103   8.367236
    36  H    1.098858   5.077974   5.068044   6.649935   8.244727
    37  H    1.098226   5.949089   3.483979   5.190029   6.791323
    38  H    1.098149   6.454621   4.240325   5.765383   7.809381
    39  H    7.362407   1.870061   9.576600  10.417864  10.569217
                   26         27         28         29         30
    26  H    0.000000
    27  H    4.876444   0.000000
    28  H    4.046745   1.789870   0.000000
    29  H    2.451806   3.694892   2.502214   0.000000
    30  H    2.537493   4.179779   3.697228   1.789057   0.000000
    31  H    4.205530   2.376598   2.506309   2.504525   2.381142
    32  H    6.085926   5.322385   5.273152   6.701107   7.537709
    33  H    7.591348   7.052789   6.949402   8.347345   9.239176
    34  H    3.933455   7.742702   6.701828   5.828130   6.447442
    35  H    8.059633   8.659336   8.185817   9.131247  10.109474
    36  H    7.915618   7.225191   6.652222   8.161234   9.457894
    37  H    6.481046   5.543997   4.873906   6.466294   7.799716
    38  H    7.821737   6.117650   5.916815   7.816181   8.995991
    39  H    9.829122  12.085485  11.300128  11.435638  12.288862
                   31         32         33         34         35
    31  H    0.000000
    32  H    7.150232   0.000000
    33  H    8.919373   1.780599   0.000000
    34  H    7.851116   5.867649   6.562580   0.000000
    35  H   10.218772   3.539047   2.264708   5.878652   0.000000
    36  H    9.013043   3.087943   2.529431   6.799348   2.962342
    37  H    7.262754   2.513282   3.087076   6.128868   4.019857
    38  H    8.176987   2.505485   2.507287   7.537696   4.079897
    39  H   13.105724   7.491226   6.528095   6.222235   4.333470
                   36         37         38         39
    36  H    0.000000
    37  H    1.783413   0.000000
    38  H    1.777136   1.779025   0.000000
    39  H    6.830871   7.756461   8.282266   0.000000
 Stoichiometry    C14H17N5O3
 Framework group  C1[X(C14H17N5O3)]
 Deg. of freedom   111
 Full point group                 C1      NOp   1
 Largest Abelian subgroup         C1      NOp   1
 Largest concise Abelian subgroup C1      NOp   1
                         Standard orientation:                         
 ---------------------------------------------------------------------
 Center     Atomic      Atomic             Coordinates (Angstroms)
 Number     Number       Type             X           Y           Z
 ---------------------------------------------------------------------
      1          8           0       -2.881858   -2.468626    0.455000
      2          8           0       -5.362198   -1.358491   -0.000563
      3          8           0       -5.464085    0.880365   -0.313282
      4          7           0        2.981599   -0.328105   -0.227872
      5          7           0        5.759570    0.115663   -0.065270
      6          7           0       -1.388109    1.331449   -0.209337
      7          7           0        0.808687    0.521634   -0.173792
      8          7           0        1.238878   -1.844155    0.071258
      9          6           0        3.529733    0.997558   -0.498542
     10          6           0        3.919124   -1.436887   -0.414848
     11          6           0        4.836064    1.196862    0.264983
     12          6           0        5.213320   -1.175661    0.343074
     13          6           0        1.639047   -0.546930   -0.107179
     14          6           0       -0.502765    0.261599   -0.081691
     15          6           0       -1.029955   -1.027784    0.109630
     16          6           0       -0.892121    2.708020   -0.374511
     17          6           0       -0.068708   -2.046971    0.184808
     18          6           0       -2.727581    1.090615   -0.193435
     19          6           0       -2.469333   -1.322063    0.206022
     20          6           0       -3.312898   -0.139112   -0.024710
     21          6           0       -0.701126    3.431308    0.950611
     22          6           0       -4.787881   -0.135323   -0.121225
     23          1           0        2.784978    1.746724   -0.211019
     24          1           0        3.727835    1.097519   -1.581497
     25          1           0        4.145667   -1.535824   -1.492868
     26          1           0        3.433062   -2.354694   -0.072103
     27          1           0        5.283018    2.157035   -0.031182
     28          1           0        4.607629    1.245894    1.353487
     29          1           0        5.003100   -1.223574    1.433522
     30          1           0        5.935160   -1.969440    0.100978
     31          1           0        6.687092    0.276698    0.344488
     32          1           0        0.057200    2.637859   -0.918553
     33          1           0       -1.618104    3.234292   -1.008868
     34          1           0       -0.412466   -3.075344    0.333659
     35          1           0       -3.368474    1.960786   -0.343070
     36          1           0       -1.646464    3.507584    1.505595
     37          1           0        0.031850    2.909003    1.579931
     38          1           0       -0.332335    4.449408    0.767865
     39          1           0       -6.327526   -1.196711   -0.112443
 ---------------------------------------------------------------------
 Rotational constants (GHZ):      0.6635047      0.1405220      0.1183983
 Standard basis: 3-21G (6D, 7F)
 There are   232 symmetry adapted cartesian basis functions of A   symmetry.
 There are   232 symmetry adapted basis functions of A   symmetry.
   232 basis functions,   381 primitive gaussians,   232 cartesian basis functions
    80 alpha electrons       80 beta electrons
       nuclear repulsion energy      1797.4985467824 Hartrees.
 NAtoms=   39 NActive=   39 NUniq=   39 SFac= 1.00D+00 NAtFMM=   60 NAOKFM=F Big=F
 Integral buffers will be    131072 words long.
 Raffenetti 2 integral format.
 Two-electron integral symmetry is turned on.
 One-electron integrals computed using PRISM.
 PrsmSu:  requested number of processors reduced to:   9 ShMem   1 Linda.
 NBasis=   232 RedAO= T EigKep=  2.51D-03  NBF=   232
 NBsUse=   232 1.00D-06 EigRej= -1.00D+00 NBFU=   232
 ExpMin= 1.83D-01 ExpMax= 3.22D+02 ExpMxC= 3.22D+02 IAcc=1 IRadAn=         1 AccDes= 0.00D+00
 Harris functional with IExCor=  402 and IRadAn=       1 diagonalized for initial guess.
 HarFok:  IExCor=  402 AccDes= 0.00D+00 IRadAn=         1 IDoV= 1 UseB2=F ITyADJ=14
 ICtDFT=  3500011 ScaDFX=  1.000000  1.000000  1.000000  1.000000
 FoFCou: FMM=F IPFlag=           0 FMFlag=      100000 FMFlg1=           0
         NFxFlg=           0 DoJE=T BraDBF=F KetDBF=T FulRan=T
         wScrn=  0.000000 ICntrl=     500 IOpCl=  0 I1Cent=   200000004 NGrid=           0
         NMat0=    1 NMatS0=      1 NMatT0=    0 NMatD0=    1 NMtDS0=    0 NMtDT0=    0
 Petite list used in FoFCou.
 Requested convergence on RMS density matrix=1.00D-08 within 128 cycles.
 Requested convergence on MAX density matrix=1.00D-06.
 Requested convergence on             energy=1.00D-06.
 No special actions if energy rises.
 Integral accuracy reduced to 1.0D-05 until final iterations.
 EnCoef did     1 forward-backward iterations
 Initial convergence to 1.0D-05 achieved.  Increase integral accuracy.
 SCF Done:  E(RB3LYP) =  -1037.44729945     A.U. after   17 cycles
            NFock= 17  Conv=0.54D-08     -V/T= 2.0081

 **********************************************************************

            Population analysis using the SCF density.

 **********************************************************************

 Orbital symmetries:
       Occupied  (A) (A) (A) (A) (A) (A) (A) (A) (A) (A) (A) (A)
                 (A) (A) (A) (A) (A) (A) (A) (A) (A) (A) (A) (A)
                 (A) (A) (A) (A) (A) (A) (A) (A) (A) (A) (A) (A)
                 (A) (A) (A) (A) (A) (A) (A) (A) (A) (A) (A) (A)
                 (A) (A) (A) (A) (A) (A) (A) (A) (A) (A) (A) (A)
                 (A) (A) (A) (A) (A) (A) (A) (A) (A) (A) (A) (A)
                 (A) (A) (A) (A) (A) (A) (A) (A)
       Virtual   (A) (A) (A) (A) (A) (A) (A) (A) (A) (A) (A) (A)
                 (A) (A) (A) (A) (A) (A) (A) (A) (A) (A) (A) (A)
                 (A) (A) (A) (A) (A) (A) (A) (A) (A) (A) (A) (A)
                 (A) (A) (A) (A) (A) (A) (A) (A) (A) (A) (A) (A)
                 (A) (A) (A) (A) (A) (A) (A) (A) (A) (A) (A) (A)
                 (A) (A) (A) (A) (A) (A) (A) (A) (A) (A) (A) (A)
                 (A) (A) (A) (A) (A) (A) (A) (A) (A) (A) (A) (A)
                 (A) (A) (A) (A) (A) (A) (A) (A) (A) (A) (A) (A)
                 (A) (A) (A) (A) (A) (A) (A) (A) (A) (A) (A) (A)
                 (A) (A) (A) (A) (A) (A) (A) (A) (A) (A) (A) (A)
                 (A) (A) (A) (A) (A) (A) (A) (A) (A) (A) (A) (A)
                 (A) (A) (A) (A) (A) (A) (A) (A) (A) (A) (A) (A)
                 (A) (A) (A) (A) (A) (A) (A) (A)
 The electronic state is 1-A.
 Alpha  occ. eigenvalues --  -19.07182 -19.01567 -18.99721 -14.33880 -14.29448
 Alpha  occ. eigenvalues --  -14.26555 -14.25905 -14.24157 -10.25324 -10.24728
 Alpha  occ. eigenvalues --  -10.23362 -10.20125 -10.20070 -10.18357 -10.18251
 Alpha  occ. eigenvalues --  -10.16231 -10.15762 -10.15675 -10.15432 -10.14381
 Alpha  occ. eigenvalues --  -10.14153 -10.13306  -1.10162  -1.03966  -1.01634
 Alpha  occ. eigenvalues --   -1.00967  -1.00546  -0.95742  -0.91043  -0.90911
 Alpha  occ. eigenvalues --   -0.83210  -0.80302  -0.78175  -0.77191  -0.73031
 Alpha  occ. eigenvalues --   -0.70770  -0.67671  -0.65956  -0.65484  -0.62235
 Alpha  occ. eigenvalues --   -0.61339  -0.59574  -0.55950  -0.55655  -0.53748
 Alpha  occ. eigenvalues --   -0.52461  -0.50023  -0.49179  -0.48596  -0.47836
 Alpha  occ. eigenvalues --   -0.47094  -0.46746  -0.45711  -0.45383  -0.45253
 Alpha  occ. eigenvalues --   -0.44392  -0.43789  -0.43018  -0.42646  -0.41671
 Alpha  occ. eigenvalues --   -0.40395  -0.39644  -0.38391  -0.37981  -0.37223
 Alpha  occ. eigenvalues --   -0.36724  -0.36460  -0.36246  -0.35818  -0.35571
 Alpha  occ. eigenvalues --   -0.31716  -0.31410  -0.30935  -0.28961  -0.26206
 Alpha  occ. eigenvalues --   -0.24844  -0.23111  -0.22347  -0.22243  -0.21264
 Alpha virt. eigenvalues --   -0.05497  -0.03199  -0.00203   0.03771   0.09269
 Alpha virt. eigenvalues --    0.09646   0.10883   0.11241   0.12281   0.13359
 Alpha virt. eigenvalues --    0.13743   0.14757   0.15091   0.15962   0.16169
 Alpha virt. eigenvalues --    0.16751   0.17560   0.17821   0.18139   0.18352
 Alpha virt. eigenvalues --    0.18756   0.19080   0.19908   0.20012   0.21552
 Alpha virt. eigenvalues --    0.22893   0.23199   0.24103   0.24317   0.24650
 Alpha virt. eigenvalues --    0.25632   0.26268   0.27186   0.28135   0.28481
 Alpha virt. eigenvalues --    0.29899   0.31067   0.35762   0.36189   0.39535
 Alpha virt. eigenvalues --    0.40094   0.41905   0.43918   0.47726   0.52327
 Alpha virt. eigenvalues --    0.54243   0.54906   0.62933   0.65965   0.66373
 Alpha virt. eigenvalues --    0.67805   0.68489   0.68967   0.69549   0.70527
 Alpha virt. eigenvalues --    0.70942   0.71284   0.71756   0.72076   0.72878
 Alpha virt. eigenvalues --    0.74018   0.74904   0.75794   0.76188   0.76343
 Alpha virt. eigenvalues --    0.76658   0.77701   0.78814   0.79584   0.79704
 Alpha virt. eigenvalues --    0.80381   0.81064   0.82387   0.84561   0.86272
 Alpha virt. eigenvalues --    0.87434   0.88326   0.89088   0.89841   0.91477
 Alpha virt. eigenvalues --    0.95436   0.97269   0.98453   0.99219   0.99597
 Alpha virt. eigenvalues --    1.00339   1.01978   1.02545   1.03066   1.03107
 Alpha virt. eigenvalues --    1.04257   1.05067   1.06703   1.07129   1.08737
 Alpha virt. eigenvalues --    1.09549   1.11672   1.12811   1.15327   1.17658
 Alpha virt. eigenvalues --    1.18766   1.19763   1.22482   1.23016   1.26747
 Alpha virt. eigenvalues --    1.29046   1.30011   1.32034   1.34986   1.36219
 Alpha virt. eigenvalues --    1.37829   1.40635   1.41931   1.43592   1.44192
 Alpha virt. eigenvalues --    1.45902   1.48445   1.52027   1.54558   1.56119
 Alpha virt. eigenvalues --    1.57431   1.59286   1.60875   1.62262   1.62504
 Alpha virt. eigenvalues --    1.65066   1.66471   1.67452   1.69989   1.71281
 Alpha virt. eigenvalues --    1.75306   1.79726   1.81856   1.84578   1.85935
 Alpha virt. eigenvalues --    1.88340   1.88738   1.90406   1.95830   2.00949
 Alpha virt. eigenvalues --    2.02361   2.16346   2.26826   2.51064   2.66505
 Alpha virt. eigenvalues --    2.80123   2.85788   2.97885   3.10810   3.15960
 Alpha virt. eigenvalues --    3.44551   3.59377
          Condensed to atoms (all electrons):
               1          2          3          4          5          6
     1  O    8.069744  -0.000749  -0.000001   0.000000   0.000000  -0.000024
     2  O   -0.000749   8.234185  -0.065410   0.000000   0.000000  -0.000001
     3  O   -0.000001  -0.065410   8.144873   0.000000   0.000000   0.000090
     4  N    0.000000   0.000000   0.000000   7.312607  -0.003680  -0.000008
     5  N    0.000000   0.000000   0.000000  -0.003680   6.951302   0.000000
     6  N   -0.000024  -0.000001   0.000090  -0.000008   0.000000   7.443069
     7  N   -0.000001   0.000000   0.000000  -0.068865  -0.000001  -0.057377
     8  N    0.000046   0.000000   0.000000  -0.068846  -0.000001  -0.000040
     9  C    0.000000   0.000000   0.000000   0.250705  -0.060704   0.000008
    10  C    0.000000   0.000000   0.000000   0.250435  -0.061583   0.000000
    11  C    0.000000   0.000000   0.000000  -0.053190   0.287030   0.000000
    12  C    0.000000   0.000000   0.000000  -0.053313   0.284372   0.000000
    13  C   -0.000003   0.000000   0.000000   0.269883  -0.000170   0.001766
    14  C    0.003095  -0.000002   0.000001   0.001697   0.000000   0.198531
    15  C   -0.123642   0.000111  -0.000015   0.000024   0.000000  -0.057274
    16  C    0.000000   0.000000   0.000003   0.000004   0.000000   0.229870
    17  C    0.000360   0.000000   0.000000   0.001702   0.000000   0.003900
    18  C    0.003489   0.003216   0.003948   0.000000   0.000000   0.238904
    19  C    0.647108   0.002276   0.001895   0.000002   0.000000  -0.029920
    20  C   -0.113305  -0.093538  -0.114403   0.000000   0.000000  -0.018293
    21  C    0.000000   0.000000   0.000000   0.000001   0.000000  -0.055059
    22  C   -0.004207   0.219740   0.519987   0.000000   0.000000   0.004434
    23  H    0.000000   0.000000   0.000000  -0.033070   0.001964  -0.000076
    24  H    0.000000   0.000000   0.000000  -0.047530   0.003025   0.000000
    25  H    0.000000   0.000000   0.000000  -0.048433   0.002898   0.000000
    26  H    0.000000   0.000000   0.000000  -0.033142   0.001866   0.000000
    27  H    0.000000   0.000000   0.000000   0.002488  -0.030942   0.000000
    28  H    0.000000   0.000000   0.000000   0.000250  -0.050958   0.000000
    29  H    0.000000   0.000000   0.000000   0.000104  -0.050946   0.000000
    30  H    0.000000   0.000000   0.000000   0.002479  -0.030586   0.000000
    31  H    0.000000   0.000000   0.000000  -0.000107   0.327537   0.000000
    32  H    0.000000   0.000000   0.000000  -0.000067   0.000000  -0.035039
    33  H    0.000000   0.000000  -0.000003   0.000000   0.000000  -0.035238
    34  H    0.011504   0.000000   0.000000  -0.000026   0.000000  -0.000025
    35  H   -0.000003   0.000245   0.020070   0.000000   0.000000  -0.034098
    36  H    0.000000   0.000000   0.000000   0.000000   0.000000  -0.001252
    37  H    0.000000   0.000000   0.000000  -0.000007   0.000000  -0.002488
    38  H    0.000000   0.000000   0.000000   0.000000   0.000000   0.002692
    39  H    0.000174   0.239531   0.005534   0.000000   0.000000   0.000000
               7          8          9         10         11         12
     1  O   -0.000001   0.000046   0.000000   0.000000   0.000000   0.000000
     2  O    0.000000   0.000000   0.000000   0.000000   0.000000   0.000000
     3  O    0.000000   0.000000   0.000000   0.000000   0.000000   0.000000
     4  N   -0.068865  -0.068846   0.250705   0.250435  -0.053190  -0.053313
     5  N   -0.000001  -0.000001  -0.060704  -0.061583   0.287030   0.284372
     6  N   -0.057377  -0.000040   0.000008   0.000000   0.000000   0.000000
     7  N    7.127779  -0.066813  -0.007316   0.001378   0.000284  -0.000026
     8  N   -0.066813   7.037586   0.001525  -0.012594  -0.000024   0.000294
     9  C   -0.007316   0.001525   5.254862  -0.063365   0.250251  -0.009816
    10  C    0.001378  -0.012594  -0.063365   5.270883  -0.010576   0.250460
    11  C    0.000284  -0.000024   0.250251  -0.010576   5.269181  -0.095069
    12  C   -0.000026   0.000294  -0.009816   0.250460  -0.095069   5.273475
    13  C    0.375166   0.370113  -0.055091  -0.056797   0.003111   0.002983
    14  C    0.412728  -0.029464   0.000382  -0.000081  -0.000004   0.000001
    15  C   -0.054290  -0.046244  -0.000028  -0.000043   0.000000   0.000000
    16  C   -0.005454   0.000002  -0.000061   0.000000   0.000001   0.000000
    17  C   -0.028961   0.402252  -0.000105   0.000455   0.000001  -0.000002
    18  C    0.001509   0.000006   0.000000   0.000000   0.000000   0.000000
    19  C    0.002794   0.003727   0.000000   0.000000   0.000000   0.000000
    20  C   -0.000316  -0.000042   0.000000   0.000000   0.000000   0.000000
    21  C   -0.001608   0.000000  -0.000005   0.000000   0.000000   0.000000
    22  C    0.000000   0.000000   0.000000   0.000000   0.000000   0.000000
    23  H    0.019140   0.000260   0.351102   0.002862  -0.029414  -0.000045
    24  H    0.000772  -0.000011   0.351733  -0.000930  -0.053803  -0.000290
    25  H    0.000035   0.000654  -0.001571   0.352812  -0.000151  -0.054884
    26  H    0.000331   0.026120   0.002698   0.346655  -0.000049  -0.028510
    27  H   -0.000001   0.000000  -0.033489  -0.000051   0.367513   0.004618
    28  H   -0.000014  -0.000004  -0.060574  -0.000097   0.328351  -0.006187
    29  H   -0.000002  -0.000006  -0.000172  -0.060014  -0.006250   0.329911
    30  H    0.000000  -0.000001  -0.000081  -0.033418   0.004609   0.367767
    31  H    0.000000   0.000000   0.005037   0.005051  -0.043072  -0.042850
    32  H    0.018080   0.000013   0.000046   0.000000  -0.000001   0.000000
    33  H    0.000347   0.000000   0.000000   0.000000   0.000000   0.000000
    34  H   -0.000182  -0.036497   0.000001   0.000027   0.000000   0.000000
    35  H   -0.000035   0.000000   0.000000   0.000000   0.000000   0.000000
    36  H   -0.000003   0.000000   0.000000   0.000000   0.000000   0.000000
    37  H    0.003046   0.000002  -0.000022   0.000000   0.000001   0.000000
    38  H   -0.000005   0.000000   0.000000   0.000000   0.000000   0.000000
    39  H    0.000000   0.000000   0.000000   0.000000   0.000000   0.000000
              13         14         15         16         17         18
     1  O   -0.000003   0.003095  -0.123642   0.000000   0.000360   0.003489
     2  O    0.000000  -0.000002   0.000111   0.000000   0.000000   0.003216
     3  O    0.000000   0.000001  -0.000015   0.000003   0.000000   0.003948
     4  N    0.269883   0.001697   0.000024   0.000004   0.001702   0.000000
     5  N   -0.000170   0.000000   0.000000   0.000000   0.000000   0.000000
     6  N    0.001766   0.198531  -0.057274   0.229870   0.003900   0.238904
     7  N    0.375166   0.412728  -0.054290  -0.005454  -0.028961   0.001509
     8  N    0.370113  -0.029464  -0.046244   0.000002   0.402252   0.000006
     9  C   -0.055091   0.000382  -0.000028  -0.000061  -0.000105   0.000000
    10  C   -0.056797  -0.000081  -0.000043   0.000000   0.000455   0.000000
    11  C    0.003111  -0.000004   0.000000   0.000001   0.000001   0.000000
    12  C    0.002983   0.000001   0.000000   0.000000  -0.000002   0.000000
    13  C    4.485521  -0.098659  -0.020325   0.000170  -0.107964  -0.000052
    14  C   -0.098659   4.880658   0.165515  -0.049414  -0.108842  -0.071878
    15  C   -0.020325   0.165515   6.376481   0.002775   0.230838  -0.007189
    16  C    0.000170  -0.049414   0.002775   5.212616  -0.000081  -0.058927
    17  C   -0.107964  -0.108842   0.230838  -0.000081   5.130218  -0.000825
    18  C   -0.000052  -0.071878  -0.007189  -0.058927  -0.000825   5.109461
    19  C    0.000922   0.016240  -0.073450  -0.000078  -0.054787  -0.026078
    20  C   -0.000078  -0.018993  -0.181474   0.002023   0.011267   0.315398
    21  C   -0.000020  -0.001125  -0.000200   0.268446   0.000003  -0.000111
    22  C    0.000000  -0.000443   0.005628  -0.000035   0.000004  -0.092735
    23  H   -0.002371  -0.000129   0.000057  -0.000019  -0.000009   0.000000
    24  H    0.000097  -0.000009  -0.000001  -0.000004   0.000004   0.000000
    25  H    0.000508   0.000004  -0.000001   0.000000  -0.000002   0.000000
    26  H   -0.002011   0.000002   0.000091   0.000000   0.000045   0.000000
    27  H   -0.000040   0.000000   0.000000   0.000000   0.000000   0.000000
    28  H    0.000063  -0.000001   0.000000   0.000000   0.000000   0.000000
    29  H    0.000106   0.000000   0.000000   0.000000  -0.000001   0.000000
    30  H   -0.000036   0.000000   0.000000   0.000000   0.000000   0.000000
    31  H    0.000008   0.000000   0.000000   0.000000   0.000000   0.000000
    32  H    0.000080  -0.001807   0.000856   0.362709  -0.000004   0.002446
    33  H    0.000000   0.003560  -0.000024   0.368548   0.000001  -0.002140
    34  H    0.003810   0.003113  -0.080552   0.000001   0.386575  -0.000048
    35  H    0.000001   0.002785  -0.000509  -0.001951   0.000001   0.365866
    36  H    0.000000  -0.000006   0.000005  -0.040982   0.000000   0.002454
    37  H    0.000045   0.002518   0.000059  -0.039224   0.000000  -0.000114
    38  H    0.000000   0.000005   0.000001  -0.036629   0.000000  -0.000012
    39  H    0.000000   0.000000   0.000005   0.000000   0.000000  -0.000299
              19         20         21         22         23         24
     1  O    0.647108  -0.113305   0.000000  -0.004207   0.000000   0.000000
     2  O    0.002276  -0.093538   0.000000   0.219740   0.000000   0.000000
     3  O    0.001895  -0.114403   0.000000   0.519987   0.000000   0.000000
     4  N    0.000002   0.000000   0.000001   0.000000  -0.033070  -0.047530
     5  N    0.000000   0.000000   0.000000   0.000000   0.001964   0.003025
     6  N   -0.029920  -0.018293  -0.055059   0.004434  -0.000076   0.000000
     7  N    0.002794  -0.000316  -0.001608   0.000000   0.019140   0.000772
     8  N    0.003727  -0.000042   0.000000   0.000000   0.000260  -0.000011
     9  C    0.000000   0.000000  -0.000005   0.000000   0.351102   0.351733
    10  C    0.000000   0.000000   0.000000   0.000000   0.002862  -0.000930
    11  C    0.000000   0.000000   0.000000   0.000000  -0.029414  -0.053803
    12  C    0.000000   0.000000   0.000000   0.000000  -0.000045  -0.000290
    13  C    0.000922  -0.000078  -0.000020   0.000000  -0.002371   0.000097
    14  C    0.016240  -0.018993  -0.001125  -0.000443  -0.000129  -0.000009
    15  C   -0.073450  -0.181474  -0.000200   0.005628   0.000057  -0.000001
    16  C   -0.000078   0.002023   0.268446  -0.000035  -0.000019  -0.000004
    17  C   -0.054787   0.011267   0.000003   0.000004  -0.000009   0.000004
    18  C   -0.026078   0.315398  -0.000111  -0.092735   0.000000   0.000000
    19  C    5.232788  -0.070422   0.000000  -0.038237   0.000000   0.000000
    20  C   -0.070422   6.460356  -0.000035   0.065539   0.000000   0.000000
    21  C    0.000000  -0.000035   5.354360   0.000002   0.000028   0.000000
    22  C   -0.038237   0.065539   0.000002   4.687227   0.000000   0.000000
    23  H    0.000000   0.000000   0.000028   0.000000   0.484486  -0.025091
    24  H    0.000000   0.000000   0.000000   0.000000  -0.025091   0.553816
    25  H    0.000000   0.000000   0.000000   0.000000  -0.000067   0.005755
    26  H    0.000000   0.000000   0.000000   0.000000  -0.000064  -0.000054
    27  H    0.000000   0.000000   0.000000   0.000000  -0.001391  -0.001297
    28  H    0.000000   0.000000   0.000000   0.000000   0.000787   0.005149
    29  H    0.000000   0.000000   0.000000   0.000000   0.000069   0.000221
    30  H    0.000000   0.000000   0.000000   0.000000   0.000002   0.000022
    31  H    0.000000   0.000000   0.000000   0.000000  -0.000085  -0.000140
    32  H   -0.000006  -0.000115  -0.045253   0.000000   0.001158   0.000029
    33  H   -0.000011   0.000401  -0.048730  -0.000009   0.000003   0.000000
    34  H    0.004998   0.000946   0.000000   0.000003   0.000000   0.000000
    35  H    0.002732  -0.055356   0.000094   0.000952   0.000000   0.000000
    36  H    0.000000  -0.000059   0.366879   0.000000   0.000000   0.000000
    37  H   -0.000004   0.000013   0.364199   0.000000   0.000286  -0.000001
    38  H    0.000000   0.000000   0.352269   0.000000  -0.000001   0.000000
    39  H   -0.000092   0.012631   0.000000  -0.030981   0.000000   0.000000
              25         26         27         28         29         30
     1  O    0.000000   0.000000   0.000000   0.000000   0.000000   0.000000
     2  O    0.000000   0.000000   0.000000   0.000000   0.000000   0.000000
     3  O    0.000000   0.000000   0.000000   0.000000   0.000000   0.000000
     4  N   -0.048433  -0.033142   0.002488   0.000250   0.000104   0.002479
     5  N    0.002898   0.001866  -0.030942  -0.050958  -0.050946  -0.030586
     6  N    0.000000   0.000000   0.000000   0.000000   0.000000   0.000000
     7  N    0.000035   0.000331  -0.000001  -0.000014  -0.000002   0.000000
     8  N    0.000654   0.026120   0.000000  -0.000004  -0.000006  -0.000001
     9  C   -0.001571   0.002698  -0.033489  -0.060574  -0.000172  -0.000081
    10  C    0.352812   0.346655  -0.000051  -0.000097  -0.060014  -0.033418
    11  C   -0.000151  -0.000049   0.367513   0.328351  -0.006250   0.004609
    12  C   -0.054884  -0.028510   0.004618  -0.006187   0.329911   0.367767
    13  C    0.000508  -0.002011  -0.000040   0.000063   0.000106  -0.000036
    14  C    0.000004   0.000002   0.000000  -0.000001   0.000000   0.000000
    15  C   -0.000001   0.000091   0.000000   0.000000   0.000000   0.000000
    16  C    0.000000   0.000000   0.000000   0.000000   0.000000   0.000000
    17  C   -0.000002   0.000045   0.000000   0.000000  -0.000001   0.000000
    18  C    0.000000   0.000000   0.000000   0.000000   0.000000   0.000000
    19  C    0.000000   0.000000   0.000000   0.000000   0.000000   0.000000
    20  C    0.000000   0.000000   0.000000   0.000000   0.000000   0.000000
    21  C    0.000000   0.000000   0.000000   0.000000   0.000000   0.000000
    22  C    0.000000   0.000000   0.000000   0.000000   0.000000   0.000000
    23  H   -0.000067  -0.000064  -0.001391   0.000787   0.000069   0.000002
    24  H    0.005755  -0.000054  -0.001297   0.005149   0.000221   0.000022
    25  H    0.553305  -0.022651   0.000021   0.000225   0.005139  -0.001387
    26  H   -0.022651   0.460585   0.000002   0.000070   0.000834  -0.001315
    27  H    0.000021   0.000002   0.531640  -0.034550  -0.000173  -0.000069
    28  H    0.000225   0.000070  -0.034550   0.636578   0.013668  -0.000172
    29  H    0.005139   0.000834  -0.000173   0.013668   0.631420  -0.034025
    30  H   -0.001387  -0.001315  -0.000069  -0.000172  -0.034025   0.527998
    31  H   -0.000135  -0.000081  -0.003916  -0.001502  -0.001464  -0.003874
    32  H    0.000000   0.000000   0.000000   0.000000   0.000000   0.000000
    33  H    0.000000   0.000000   0.000000   0.000000   0.000000   0.000000
    34  H    0.000000  -0.000095   0.000000   0.000000   0.000000   0.000000
    35  H    0.000000   0.000000   0.000000   0.000000   0.000000   0.000000
    36  H    0.000000   0.000000   0.000000   0.000000   0.000000   0.000000
    37  H    0.000000   0.000000   0.000000   0.000000   0.000000   0.000000
    38  H    0.000000   0.000000   0.000000   0.000000   0.000000   0.000000
    39  H    0.000000   0.000000   0.000000   0.000000   0.000000   0.000000
              31         32         33         34         35         36
     1  O    0.000000   0.000000   0.000000   0.011504  -0.000003   0.000000
     2  O    0.000000   0.000000   0.000000   0.000000   0.000245   0.000000
     3  O    0.000000   0.000000  -0.000003   0.000000   0.020070   0.000000
     4  N   -0.000107  -0.000067   0.000000  -0.000026   0.000000   0.000000
     5  N    0.327537   0.000000   0.000000   0.000000   0.000000   0.000000
     6  N    0.000000  -0.035039  -0.035238  -0.000025  -0.034098  -0.001252
     7  N    0.000000   0.018080   0.000347  -0.000182  -0.000035  -0.000003
     8  N    0.000000   0.000013   0.000000  -0.036497   0.000000   0.000000
     9  C    0.005037   0.000046   0.000000   0.000001   0.000000   0.000000
    10  C    0.005051   0.000000   0.000000   0.000027   0.000000   0.000000
    11  C   -0.043072  -0.000001   0.000000   0.000000   0.000000   0.000000
    12  C   -0.042850   0.000000   0.000000   0.000000   0.000000   0.000000
    13  C    0.000008   0.000080   0.000000   0.003810   0.000001   0.000000
    14  C    0.000000  -0.001807   0.003560   0.003113   0.002785  -0.000006
    15  C    0.000000   0.000856  -0.000024  -0.080552  -0.000509   0.000005
    16  C    0.000000   0.362709   0.368548   0.000001  -0.001951  -0.040982
    17  C    0.000000  -0.000004   0.000001   0.386575   0.000001   0.000000
    18  C    0.000000   0.002446  -0.002140  -0.000048   0.365866   0.002454
    19  C    0.000000  -0.000006  -0.000011   0.004998   0.002732   0.000000
    20  C    0.000000  -0.000115   0.000401   0.000946  -0.055356  -0.000059
    21  C    0.000000  -0.045253  -0.048730   0.000000   0.000094   0.366879
    22  C    0.000000   0.000000  -0.000009   0.000003   0.000952   0.000000
    23  H   -0.000085   0.001158   0.000003   0.000000   0.000000   0.000000
    24  H   -0.000140   0.000029   0.000000   0.000000   0.000000   0.000000
    25  H   -0.000135   0.000000   0.000000   0.000000   0.000000   0.000000
    26  H   -0.000081   0.000000   0.000000  -0.000095   0.000000   0.000000
    27  H   -0.003916   0.000000   0.000000   0.000000   0.000000   0.000000
    28  H   -0.001502   0.000000   0.000000   0.000000   0.000000   0.000000
    29  H   -0.001464   0.000000   0.000000   0.000000   0.000000   0.000000
    30  H   -0.003874   0.000000   0.000000   0.000000   0.000000   0.000000
    31  H    0.484593   0.000000   0.000000   0.000000   0.000000   0.000000
    32  H    0.000000   0.471782  -0.022094   0.000000   0.000093   0.003038
    33  H    0.000000  -0.022094   0.518461   0.000000   0.002424  -0.002686
    34  H    0.000000   0.000000   0.000000   0.461089   0.000000   0.000000
    35  H    0.000000   0.000093   0.002424   0.000000   0.438848   0.000480
    36  H    0.000000   0.003038  -0.002686   0.000000   0.000480   0.519757
    37  H    0.000000  -0.002353   0.003333   0.000000  -0.000003  -0.025692
    38  H    0.000000  -0.000028  -0.000256   0.000000  -0.000015  -0.025031
    39  H    0.000000   0.000000   0.000000   0.000000  -0.000017   0.000000
              37         38         39
     1  O    0.000000   0.000000   0.000174
     2  O    0.000000   0.000000   0.239531
     3  O    0.000000   0.000000   0.005534
     4  N   -0.000007   0.000000   0.000000
     5  N    0.000000   0.000000   0.000000
     6  N   -0.002488   0.002692   0.000000
     7  N    0.003046  -0.000005   0.000000
     8  N    0.000002   0.000000   0.000000
     9  C   -0.000022   0.000000   0.000000
    10  C    0.000000   0.000000   0.000000
    11  C    0.000001   0.000000   0.000000
    12  C    0.000000   0.000000   0.000000
    13  C    0.000045   0.000000   0.000000
    14  C    0.002518   0.000005   0.000000
    15  C    0.000059   0.000001   0.000005
    16  C   -0.039224  -0.036629   0.000000
    17  C    0.000000   0.000000   0.000000
    18  C   -0.000114  -0.000012  -0.000299
    19  C   -0.000004   0.000000  -0.000092
    20  C    0.000013   0.000000   0.012631
    21  C    0.364199   0.352269   0.000000
    22  C    0.000000   0.000000  -0.030981
    23  H    0.000286  -0.000001   0.000000
    24  H   -0.000001   0.000000   0.000000
    25  H    0.000000   0.000000   0.000000
    26  H    0.000000   0.000000   0.000000
    27  H    0.000000   0.000000   0.000000
    28  H    0.000000   0.000000   0.000000
    29  H    0.000000   0.000000   0.000000
    30  H    0.000000   0.000000   0.000000
    31  H    0.000000   0.000000   0.000000
    32  H   -0.002353  -0.000028   0.000000
    33  H    0.003333  -0.000256   0.000000
    34  H    0.000000   0.000000   0.000000
    35  H   -0.000003  -0.000015  -0.000017
    36  H   -0.025692  -0.025031   0.000000
    37  H    0.505586  -0.023734   0.000000
    38  H   -0.023734   0.532937   0.000000
    39  H    0.000000   0.000000   0.411679
 Mulliken charges:
               1
     1  O   -0.493586
     2  O   -0.539606
     3  O   -0.516569
     4  N   -0.682095
     5  N   -0.570424
     6  N   -0.797053
     7  N   -0.672119
     8  N   -0.582013
     9  C   -0.175948
    10  C   -0.181470
    11  C   -0.218729
    12  C   -0.222889
    13  C    0.829267
    14  C    0.690022
    15  C   -0.137186
    16  C   -0.214309
    17  C    0.133959
    18  C    0.213711
    19  C    0.377603
    20  C   -0.202146
    21  C   -0.554136
    22  C    0.663132
    23  H    0.229628
    24  H    0.208535
    25  H    0.207927
    26  H    0.248674
    27  H    0.199637
    28  H    0.168918
    29  H    0.171581
    30  H    0.202088
    31  H    0.275002
    32  H    0.246435
    33  H    0.214112
    34  H    0.245359
    35  H    0.257396
    36  H    0.203098
    37  H    0.214554
    38  H    0.197807
    39  H    0.361833
 Sum of Mulliken charges =   0.00000
 Mulliken charges with hydrogens summed into heavy atoms:
               1
     1  O   -0.493586
     2  O   -0.177773
     3  O   -0.516569
     4  N   -0.682095
     5  N   -0.295422
     6  N   -0.797053
     7  N   -0.672119
     8  N   -0.582013
     9  C    0.262215
    10  C    0.275132
    11  C    0.149825
    12  C    0.150780
    13  C    0.829267
    14  C    0.690022
    15  C   -0.137186
    16  C    0.246238
    17  C    0.379318
    18  C    0.471107
    19  C    0.377603
    20  C   -0.202146
    21  C    0.061323
    22  C    0.663132
 Electronic spatial extent (au):  <R**2>=           8649.7555
 Charge=              0.0000 electrons
 Dipole moment (field-independent basis, Debye):
    X=              4.9544    Y=              4.4276    Z=              0.0102  Tot=              6.6445
 Quadrupole moment (field-independent basis, Debye-Ang):
   XX=           -119.4557   YY=           -126.6726   ZZ=           -128.7259
   XY=             -3.3385   XZ=              6.3839   YZ=              1.8871
 Traceless Quadrupole moment (field-independent basis, Debye-Ang):
   XX=              5.4957   YY=             -1.7212   ZZ=             -3.7745
   XY=             -3.3385   XZ=              6.3839   YZ=              1.8871
 Octapole moment (field-independent basis, Debye-Ang**2):
  XXX=             72.4538  YYY=             43.7313  ZZZ=             -1.3378  XYY=             29.8740
  XXY=            -26.1199  XXZ=             33.7116  XZZ=            -13.1862  YZZ=             -0.1495
  YYZ=             -7.3832  XYZ=             -6.8455
 Hexadecapole moment (field-independent basis, Debye-Ang**3):
 XXXX=          -7670.2413 YYYY=          -1954.1368 ZZZZ=           -255.7882 XXXY=            357.4138
 XXXZ=            248.5106 YYYX=            -64.6086 YYYZ=             -4.1879 ZZZX=             -1.8454
 ZZZY=             -6.0395 XXYY=          -1843.8561 XXZZ=          -1538.5858 YYZZ=           -377.8778
 XXYZ=             51.5388 YYXZ=             12.3986 ZZXY=              9.0401
 N-N= 1.797498546782D+03 E-N=-6.011427796398D+03  KE= 1.029063061507D+03
 PrsmSu:  requested number of processors reduced to:   9 ShMem   1 Linda.
 Calling FoFJK, ICntrl=      2127 FMM=F ISym2X=0 I1Cent= 0 IOpClX= 0 NMat=1 NMatS=1 NMatT=0.
 ***** Axes restored to original set *****
 -------------------------------------------------------------------
 Center     Atomic                   Forces (Hartrees/Bohr)
 Number     Number              X              Y              Z
 -------------------------------------------------------------------
      1        8           0.000235258    0.004709170   -0.000580701
      2        8          -0.005845703    0.007434948    0.001404057
      3        8           0.001963426   -0.004497450   -0.000627713
      4        7           0.011389859    0.001915722    0.003500217
      5        7          -0.012133263   -0.001941414   -0.004644058
      6        7           0.001243249    0.007116021    0.002114560
      7        7           0.002485574    0.001355513    0.000185395
      8        7           0.000395785    0.000440190    0.000281509
      9        6           0.005419941   -0.012632516   -0.009233647
     10        6           0.001439905    0.013586293   -0.008348248
     11        6           0.000075445   -0.012680968    0.009712643
     12        6          -0.003920281    0.012086680    0.009703734
     13        6          -0.012734295   -0.003678907    0.000007622
     14        6           0.002516521   -0.002048553   -0.000409055
     15        6          -0.003680195   -0.002714570   -0.000710669
     16        6          -0.005380522   -0.006585274   -0.013826201
     17        6           0.006607378    0.009697391    0.001471930
     18        6           0.010699447    0.001777667    0.000165428
     19        6           0.004381676    0.000644544    0.000680829
     20        6          -0.004578688   -0.006430011   -0.001309223
     21        6          -0.001307069   -0.004380273    0.010590701
     22        6          -0.014907037   -0.007724081    0.000888417
     23        1          -0.001950120    0.002938400   -0.000360750
     24        1          -0.000880517    0.000579233    0.003646857
     25        1          -0.000712833   -0.001085164    0.004059490
     26        1          -0.000512527   -0.003063405   -0.000539128
     27        1           0.001796828    0.002432036    0.000159178
     28        1           0.001062441    0.000216939   -0.003372123
     29        1           0.000981047    0.000290043   -0.002485863
     30        1           0.002221611   -0.002183556    0.000218680
     31        1           0.001038238    0.000069433   -0.002561898
     32        1           0.002580318   -0.000093570    0.002799945
     33        1          -0.001750484    0.000593336    0.002027888
     34        1          -0.000339704   -0.006739100   -0.000555751
     35        1          -0.001119548    0.005250955    0.000556862
     36        1          -0.001735359    0.000928083   -0.001559970
     37        1           0.001690146   -0.000220218   -0.002652446
     38        1           0.000436758    0.001437893   -0.000089937
     39        1           0.012827296    0.003198541   -0.000308560
 -------------------------------------------------------------------
 Cartesian Forces:  Max     0.014907037 RMS     0.005216346

 GradGradGradGradGradGradGradGradGradGradGradGradGradGradGradGradGradGrad
 Berny optimization.
 FormGI is forming the generalized inverse of G from B-inverse, IUseBI=4.
 Internal  Forces:  Max     0.012997006 RMS     0.002880239
 Search for a local minimum.
 Step number   1 out of a maximum of  226
 All quantities printed in internal units (Hartrees-Bohrs-Radians)
 Mixed Optimization -- RFO/linear search
 Second derivative matrix not updated -- first step.
 ITU=  0
     Eigenvalues ---    0.00479   0.00733   0.00759   0.01028   0.01055
     Eigenvalues ---    0.01139   0.01140   0.01344   0.01365   0.01445
     Eigenvalues ---    0.01481   0.01603   0.01735   0.01914   0.02009
     Eigenvalues ---    0.02147   0.02165   0.02176   0.02208   0.02265
     Eigenvalues ---    0.02268   0.02313   0.02339   0.02352   0.02958
     Eigenvalues ---    0.04214   0.04353   0.04803   0.04864   0.05343
     Eigenvalues ---    0.05538   0.05563   0.05748   0.05790   0.06237
     Eigenvalues ---    0.06321   0.07296   0.08620   0.08841   0.08882
     Eigenvalues ---    0.09154   0.09197   0.09579   0.09604   0.11764
     Eigenvalues ---    0.12627   0.12856   0.15998   0.15999   0.16000
     Eigenvalues ---    0.16000   0.16000   0.16000   0.16340   0.16376
     Eigenvalues ---    0.22008   0.22690   0.23284   0.23471   0.23969
     Eigenvalues ---    0.24962   0.24987   0.24992   0.24997   0.24998
     Eigenvalues ---    0.24998   0.24999   0.25000   0.25000   0.25000
     Eigenvalues ---    0.28497   0.29978   0.30203   0.32254   0.32435
     Eigenvalues ---    0.33027   0.33086   0.33695   0.33712   0.33809
     Eigenvalues ---    0.33863   0.33879   0.33888   0.34082   0.34264
     Eigenvalues ---    0.34300   0.34366   0.34393   0.34483   0.34589
     Eigenvalues ---    0.34695   0.34783   0.34875   0.35444   0.36728
     Eigenvalues ---    0.36950   0.40566   0.43285   0.43759   0.45396
     Eigenvalues ---    0.49008   0.49682   0.50395   0.51599   0.51829
     Eigenvalues ---    0.52351   0.53627   0.55368   0.59070   0.85611
     Eigenvalues ---    0.88947
 RFO step:  Lambda=-6.68048919D-03 EMin= 4.78888868D-03
 Linear search not attempted -- first point.
 Iteration  1 RMS(Cart)=  0.10498213 RMS(Int)=  0.00252933
 Iteration  2 RMS(Cart)=  0.00591785 RMS(Int)=  0.00009600
 Iteration  3 RMS(Cart)=  0.00000986 RMS(Int)=  0.00009589
[...]
     2  O    0.000000  -0.000002   0.000130   0.000000   0.000000   0.003302
     3  O    0.000000   0.000001  -0.000018   0.000003   0.000000   0.003182
     4  N    0.264203   0.001580   0.000075  -0.000002   0.001565   0.000000
     5  N   -0.000134   0.000000   0.000000   0.000000   0.000000   0.000000
     6  N    0.001753   0.199214  -0.056842   0.230921   0.003842   0.241538
     7  N    0.376681   0.410324  -0.054182  -0.001517  -0.029227   0.001552
     8  N    0.370545  -0.029237  -0.046565   0.000005   0.401366   0.000007
     9  C   -0.055664   0.000432  -0.000044  -0.000072  -0.000102   0.000000
    10  C   -0.056127  -0.000083  -0.000047   0.000000   0.000463   0.000000
    11  C    0.001683  -0.000007   0.000000   0.000002   0.000003   0.000000
    12  C    0.001812   0.000002   0.000000   0.000000  -0.000005   0.000000
    13  C    4.479083  -0.097651  -0.019240   0.000119  -0.106573  -0.000053
    14  C   -0.097651   4.876600   0.168717  -0.049635  -0.108080  -0.072331
    15  C   -0.019240   0.168717   6.366281   0.002891   0.232997  -0.009807
    16  C    0.000119  -0.049635   0.002891   5.198834  -0.000078  -0.052735
    17  C   -0.106573  -0.108080   0.232997  -0.000078   5.129738  -0.000785
    18  C   -0.000053  -0.072331  -0.009807  -0.052735  -0.000785   5.108867
    19  C    0.000893   0.016777  -0.067755  -0.000064  -0.055734  -0.024573
    20  C   -0.000082  -0.020520  -0.178904   0.002067   0.011519   0.317965
    21  C   -0.000054  -0.002361  -0.000305   0.268652   0.000004   0.000423
    22  C    0.000000  -0.000449   0.005787  -0.000034  -0.000003  -0.096476
    23  H   -0.001741  -0.000172   0.000076   0.000025  -0.000008   0.000000
    24  H    0.001940  -0.000004   0.000000  -0.000001   0.000002   0.000000
    25  H    0.001997   0.000002   0.000000   0.000000  -0.000002   0.000000
    26  H   -0.001295   0.000002   0.000102   0.000000   0.000038   0.000000
    27  H   -0.000032   0.000000   0.000000   0.000000   0.000000   0.000000
    28  H    0.000988  -0.000006   0.000001  -0.000001  -0.000001   0.000000
    29  H    0.000966   0.000000   0.000001   0.000000  -0.000005   0.000000
    30  H   -0.000030   0.000000   0.000000   0.000000   0.000000   0.000000
    31  H    0.000003   0.000000   0.000000   0.000000   0.000000   0.000000
    32  H    0.000047  -0.001203   0.000662   0.365018  -0.000001   0.002083
    33  H    0.000000   0.003516  -0.000015   0.367395   0.000001  -0.001252
    34  H    0.003621   0.003243  -0.082797   0.000001   0.385655  -0.000052
    35  H    0.000001   0.002774  -0.000544  -0.001540   0.000000   0.364470
    36  H    0.000000   0.000130   0.000010  -0.040515   0.000000   0.001987
    37  H    0.000206   0.002961   0.000152  -0.039472  -0.000001  -0.000129
    38  H    0.000001   0.000033   0.000001  -0.036070   0.000000  -0.000020
    39  H    0.000000   0.000000   0.000005   0.000000   0.000000  -0.000290
              19         20         21         22         23         24
     1  O    0.643475  -0.111183   0.000000  -0.004054   0.000000   0.000000
     2  O    0.002534  -0.093162   0.000000   0.222764   0.000000   0.000000
     3  O    0.001872  -0.114769   0.000000   0.518531   0.000000   0.000000
     4  N    0.000002   0.000000   0.000006   0.000000  -0.032183  -0.041498
     5  N    0.000000   0.000000   0.000000   0.000000   0.001875   0.004075
     6  N   -0.030013  -0.018447  -0.052420   0.004620  -0.000104   0.000000
     7  N    0.002854  -0.000334  -0.004497   0.000000   0.023245   0.000379
     8  N    0.003735  -0.000046  -0.000001   0.000000   0.000290  -0.000013
     9  C    0.000000   0.000000  -0.000003   0.000000   0.346480   0.352730
    10  C    0.000000   0.000000   0.000000   0.000000   0.002536  -0.002152
    11  C    0.000000   0.000000  -0.000006   0.000000  -0.031980  -0.054128
    12  C    0.000000   0.000000   0.000000   0.000000  -0.000091  -0.000461
    13  C    0.000893  -0.000082  -0.000054   0.000000  -0.001741   0.001940
    14  C    0.016777  -0.020520  -0.002361  -0.000449  -0.000172  -0.000004
    15  C   -0.067755  -0.178904  -0.000305   0.005787   0.000076   0.000000
    16  C   -0.000064   0.002067   0.268652  -0.000034   0.000025  -0.000001
    17  C   -0.055734   0.011519   0.000004  -0.000003  -0.000008   0.000002
    18  C   -0.024573   0.317965   0.000423  -0.096476   0.000000   0.000000
    19  C    5.232901  -0.076399   0.000003  -0.038224   0.000000   0.000000
    20  C   -0.076399   6.467433  -0.000055   0.063490   0.000000   0.000000
    21  C    0.000003  -0.000055   5.364299   0.000002  -0.000005   0.000000
    22  C   -0.038224   0.063490   0.000002   4.688644   0.000000   0.000000
    23  H    0.000000   0.000000  -0.000005   0.000000   0.474216  -0.018945
    24  H    0.000000   0.000000   0.000000   0.000000  -0.018945   0.531273
    25  H    0.000000   0.000000   0.000000   0.000000   0.000028   0.005681
    26  H    0.000000   0.000000   0.000000   0.000000  -0.000069   0.000029
    27  H    0.000000   0.000000   0.000001   0.000000  -0.000851  -0.000874
    28  H    0.000000   0.000000  -0.000002   0.000000   0.001620   0.004984
    29  H    0.000000   0.000000   0.000000   0.000000   0.000071   0.000218
    30  H    0.000000   0.000000   0.000000   0.000000   0.000003   0.000021
    31  H    0.000000   0.000000   0.000000   0.000000  -0.000083  -0.000133
    32  H   -0.000004  -0.000107  -0.046537   0.000001   0.001306   0.000005
    33  H   -0.000012   0.000369  -0.045212  -0.000009   0.000004   0.000000
    34  H    0.005267   0.001080   0.000000   0.000003   0.000000   0.000000
    35  H    0.002866  -0.059411   0.000058   0.000617   0.000000   0.000000
    36  H   -0.000001  -0.000061   0.365578   0.000000   0.000000   0.000000
    37  H   -0.000005   0.000016   0.359559   0.000000   0.000816   0.000000
    38  H    0.000000   0.000000   0.352704   0.000000   0.000010   0.000000
    39  H   -0.000064   0.011803   0.000000  -0.028586   0.000000   0.000000
              25         26         27         28         29         30
     1  O    0.000000   0.000000   0.000000   0.000000   0.000000   0.000000
     2  O    0.000000   0.000000   0.000000   0.000000   0.000000   0.000000
     3  O    0.000000   0.000000   0.000000   0.000000   0.000000   0.000000
     4  N   -0.041811  -0.032480   0.002649  -0.000308  -0.000211   0.002624
     5  N    0.003869   0.001750  -0.029951  -0.046455  -0.046424  -0.029680
     6  N    0.000000   0.000000   0.000000   0.000000   0.000000   0.000000
     7  N   -0.000009   0.000367  -0.000006   0.000018  -0.000015   0.000000
     8  N    0.000393   0.028952   0.000000  -0.000013   0.000045  -0.000006
     9  C   -0.002312   0.002407  -0.032824  -0.059878  -0.000315  -0.000081
    10  C    0.353262   0.343243  -0.000078  -0.000327  -0.058995  -0.032691
    11  C   -0.000413  -0.000082   0.363417   0.328398  -0.005708   0.004115
    12  C   -0.054908  -0.030395   0.004124  -0.005560   0.330182   0.363970
    13  C    0.001997  -0.001295  -0.000032   0.000988   0.000966  -0.000030
    14  C    0.000002   0.000002   0.000000  -0.000006   0.000000   0.000000
    15  C    0.000000   0.000102   0.000000   0.000001   0.000001   0.000000
    16  C    0.000000   0.000000   0.000000  -0.000001   0.000000   0.000000
    17  C   -0.000002   0.000038   0.000000  -0.000001  -0.000005   0.000000
    18  C    0.000000   0.000000   0.000000   0.000000   0.000000   0.000000
    19  C    0.000000   0.000000   0.000000   0.000000   0.000000   0.000000
    20  C    0.000000   0.000000   0.000000   0.000000   0.000000   0.000000
    21  C    0.000000   0.000000   0.000001  -0.000002   0.000000   0.000000
    22  C    0.000000   0.000000   0.000000   0.000000   0.000000   0.000000
    23  H    0.000028  -0.000069  -0.000851   0.001620   0.000071   0.000003
    24  H    0.005681   0.000029  -0.000874   0.004984   0.000218   0.000021
    25  H    0.533449  -0.017812   0.000022   0.000214   0.004932  -0.000909
    26  H   -0.017812   0.454300   0.000002   0.000069   0.001461  -0.000829
    27  H    0.000022   0.000002   0.531225  -0.033055  -0.000128  -0.000056
    28  H    0.000214   0.000069  -0.033055   0.625437   0.011618  -0.000130
    29  H    0.004932   0.001461  -0.000128   0.011618   0.618931  -0.032422
    30  H   -0.000909  -0.000829  -0.000056  -0.000130  -0.032422   0.526860
    31  H   -0.000132  -0.000077  -0.003695  -0.001119  -0.001100  -0.003649
    32  H    0.000000   0.000000   0.000000   0.000001   0.000000   0.000000
    33  H    0.000000   0.000000   0.000000   0.000000   0.000000   0.000000
    34  H    0.000000  -0.000101   0.000000   0.000000   0.000000   0.000000
    35  H    0.000000   0.000000   0.000000   0.000000   0.000000   0.000000
    36  H    0.000000   0.000000   0.000000   0.000000   0.000000   0.000000
    37  H    0.000000   0.000000  -0.000004   0.000098   0.000000   0.000000
    38  H    0.000000   0.000000   0.000000   0.000000   0.000000   0.000000
    39  H    0.000000   0.000000   0.000000   0.000000   0.000000   0.000000
              31         32         33         34         35         36
     1  O    0.000000   0.000000   0.000000   0.013251  -0.000002   0.000000
     2  O    0.000000   0.000000   0.000000   0.000000   0.000284   0.000000
     3  O    0.000000   0.000000  -0.000003   0.000000   0.022456   0.000000
     4  N   -0.000122  -0.000040   0.000000  -0.000026   0.000000   0.000000
     5  N    0.325490   0.000000   0.000000   0.000000   0.000000   0.000000
     6  N    0.000000  -0.034202  -0.032584  -0.000026  -0.032716  -0.000854
     7  N    0.000000   0.013335   0.000346  -0.000180  -0.000034   0.000017
     8  N    0.000000   0.000009   0.000000  -0.035401   0.000000   0.000000
     9  C    0.004745  -0.000042   0.000000   0.000001   0.000000   0.000000
    10  C    0.004691   0.000000   0.000000   0.000029   0.000000   0.000000
    11  C   -0.042035  -0.000003   0.000000   0.000000   0.000000   0.000000
    12  C   -0.041725   0.000000   0.000000   0.000000   0.000000   0.000000
    13  C    0.000003   0.000047   0.000000   0.003621   0.000001   0.000000
    14  C    0.000000  -0.001203   0.003516   0.003243   0.002774   0.000130
    15  C    0.000000   0.000662  -0.000015  -0.082797  -0.000544   0.000010
    16  C    0.000000   0.365018   0.367395   0.000001  -0.001540  -0.040515
    17  C    0.000000  -0.000001   0.000001   0.385655   0.000000   0.000000
    18  C    0.000000   0.002083  -0.001252  -0.000052   0.364470   0.001987
    19  C    0.000000  -0.000004  -0.000012   0.005267   0.002866  -0.000001
    20  C    0.000000  -0.000107   0.000369   0.001080  -0.059411  -0.000061
    21  C    0.000000  -0.046537  -0.045212   0.000000   0.000058   0.365578
    22  C    0.000000   0.000001  -0.000009   0.000003   0.000617   0.000000
    23  H   -0.000083   0.001306   0.000004   0.000000   0.000000   0.000000
    24  H   -0.000133   0.000005   0.000000   0.000000   0.000000   0.000000
    25  H   -0.000132   0.000000   0.000000   0.000000   0.000000   0.000000
    26  H   -0.000077   0.000000   0.000000  -0.000101   0.000000   0.000000
    27  H   -0.003695   0.000000   0.000000   0.000000   0.000000   0.000000
    28  H   -0.001119   0.000001   0.000000   0.000000   0.000000   0.000000
    29  H   -0.001100   0.000000   0.000000   0.000000   0.000000   0.000000
    30  H   -0.003649   0.000000   0.000000   0.000000   0.000000   0.000000
    31  H    0.483179   0.000000   0.000000   0.000000   0.000000   0.000000
    32  H    0.000000   0.477230  -0.022765   0.000000   0.000063   0.003116
    33  H    0.000000  -0.022765   0.513105   0.000000   0.002477  -0.002206
    34  H    0.000000   0.000000   0.000000   0.459632   0.000000   0.000000
    35  H    0.000000   0.000063   0.002477   0.000000   0.438525   0.000253
    36  H    0.000000   0.003116  -0.002206   0.000000   0.000253   0.517862
    37  H    0.000000  -0.002700   0.003282   0.000000  -0.000002  -0.024741
    38  H    0.000000   0.000390  -0.000507   0.000000  -0.000012  -0.024290
    39  H    0.000000   0.000000   0.000000   0.000000  -0.000016   0.000000
              37         38         39
     1  O    0.000000   0.000000   0.000202
     2  O    0.000000   0.000000   0.237278
     3  O    0.000000   0.000000   0.004348
     4  N   -0.000050   0.000000   0.000000
     5  N    0.000000   0.000000   0.000000
     6  N   -0.003625   0.002559   0.000000
     7  N    0.008469   0.000016   0.000000
     8  N    0.000008   0.000000   0.000000
     9  C   -0.000077  -0.000002   0.000000
    10  C    0.000000   0.000000   0.000000
    11  C    0.000025   0.000000   0.000000
    12  C    0.000000   0.000000   0.000000
    13  C    0.000206   0.000001   0.000000
    14  C    0.002961   0.000033   0.000000
    15  C    0.000152   0.000001   0.000005
    16  C   -0.039472  -0.036070   0.000000
    17  C   -0.000001   0.000000   0.000000
    18  C   -0.000129  -0.000020  -0.000290
    19  C   -0.000005   0.000000  -0.000064
    20  C    0.000016   0.000000   0.011803
    21  C    0.359559   0.352704   0.000000
    22  C    0.000000   0.000000  -0.028586
    23  H    0.000816   0.000010   0.000000
    24  H    0.000000   0.000000   0.000000
    25  H    0.000000   0.000000   0.000000
    26  H    0.000000   0.000000   0.000000
    27  H   -0.000004   0.000000   0.000000
    28  H    0.000098   0.000000   0.000000
    29  H    0.000000   0.000000   0.000000
    30  H    0.000000   0.000000   0.000000
    31  H    0.000000   0.000000   0.000000
    32  H   -0.002700   0.000390   0.000000
    33  H    0.003282  -0.000507   0.000000
    34  H    0.000000   0.000000   0.000000
    35  H   -0.000002  -0.000012  -0.000016
    36  H   -0.024741  -0.024290   0.000000
    37  H    0.499669  -0.023365   0.000000
    38  H   -0.023365   0.532790   0.000000
    39  H    0.000000   0.000000   0.414863
 Mulliken charges:
               1
     1  O   -0.495612
     2  O   -0.539425
     3  O   -0.516522
     4  N   -0.676716
     5  N   -0.564311
     6  N   -0.791853
     7  N   -0.677391
     8  N   -0.582636
     9  C   -0.194470
    10  C   -0.196277
    11  C   -0.222872
    12  C   -0.226156
    13  C    0.832134
    14  C    0.692340
    15  C   -0.138132
    16  C   -0.214196
    17  C    0.133408
    18  C    0.209810
    19  C    0.379669
    20  C   -0.202263
    21  C   -0.559831
    22  C    0.663377
    23  H    0.233629
    24  H    0.216871
    25  H    0.214458
    26  H    0.250417
    27  H    0.200112
    28  H    0.173408
    29  H    0.176897
    30  H    0.202889
    31  H    0.275760
    32  H    0.244338
    33  H    0.214070
    34  H    0.246801
    35  H    0.259430
    36  H    0.203716
    37  H    0.218911
    38  H    0.195762
    39  H    0.360457
 Sum of Mulliken charges =   0.00000
 Mulliken charges with hydrogens summed into heavy atoms:
               1
     1  O   -0.495612
     2  O   -0.178968
     3  O   -0.516522
     4  N   -0.676716
     5  N   -0.288552
     6  N   -0.791853
     7  N   -0.677391
     8  N   -0.582636
     9  C    0.256029
    10  C    0.268598
    11  C    0.150648
    12  C    0.153630
    13  C    0.832134
    14  C    0.692340
    15  C   -0.138132
    16  C    0.244212
    17  C    0.380209
    18  C    0.469240
    19  C    0.379669
    20  C   -0.202263
    21  C    0.058558
    22  C    0.663377
 Electronic spatial extent (au):  <R**2>=           8399.9898
 Charge=              0.0000 electrons
 Dipole moment (field-independent basis, Debye):
    X=              4.9964    Y=              4.4552    Z=              0.4480  Tot=              6.7092
 Quadrupole moment (field-independent basis, Debye-Ang):
   XX=           -122.1142   YY=           -127.2047   ZZ=           -126.6075
   XY=             -2.8221   XZ=              6.2702   YZ=             -0.2666
 Traceless Quadrupole moment (field-independent basis, Debye-Ang):
   XX=              3.1946   YY=             -1.8959   ZZ=             -1.2987
   XY=             -2.8221   XZ=              6.2702   YZ=             -0.2666
 Octapole moment (field-independent basis, Debye-Ang**2):
  XXX=             34.0967  YYY=             43.9299  ZZZ=              3.1213  XYY=             32.5642
  XXY=            -28.3655  XXZ=             46.8672  XZZ=             -2.9595  YZZ=              0.2925
  YYZ=             -5.3152  XYZ=              0.0929
 Hexadecapole moment (field-independent basis, Debye-Ang**3):
 XXXX=          -7630.6030 YYYY=          -1937.6773 ZZZZ=           -305.2545 XXXY=            350.6572
 XXXZ=            196.4601 YYYX=            -60.4053 YYYZ=            -14.0150 ZZZX=            -11.9081
 ZZZY=             -6.6564 XXYY=          -1789.8784 XXZZ=          -1398.1362 YYZZ=           -381.0711
 XXYZ=              2.8411 YYXZ=             14.4423 ZZXY=             11.2095
 N-N= 1.805106276720D+03 E-N=-6.026694540397D+03  KE= 1.028883115496D+03
 1\1\GINC-NODE046\FOpt\RB3LYP\3-21G\C14H17N5O3\SUPERCOMPUTO1\06-Jul-202
 0\0\\# opt b3lyp/3-21g geom=connectivity\\Title Card Required\\0,1\O,-
 6.0890123853,-5.068679905,7.5040028015\O,-3.6321952264,-6.2506091554,7
 .6166082731\O,-3.5128377958,-8.5194645464,7.4030819678\N,-11.912758729
 9,-7.241793453,6.6797068085\N,-14.5072306013,-7.7753012357,7.617638448
 4\N,-7.560404635,-8.9134801356,6.9571197474\N,-9.7453788668,-8.0864601
 226,6.8267364581\N,-10.1820062475,-5.7154178276,7.0181714465\C,-12.478
 9838547,-8.5955955072,6.5273060865\C,-12.9076195842,-6.1496504555,6.72
 87157496\C,-13.4844004728,-8.8461218573,7.6664726989\C,-13.9092226118,
 -6.4401891482,7.8609975278\C,-10.5866333358,-7.019603732,6.844872425\C
 ,-8.4395207379,-7.832752106,6.9813564328\C,-7.9211410536,-6.5402714576
 ,7.1639025784\C,-8.0856919399,-10.2995447388,6.8013933651\C,-8.8753244
 299,-5.5134380127,7.1712332475\C,-6.226195712,-8.6806614803,7.11849350
 34\C,-6.4883959007,-6.2377374805,7.341694371\C,-5.6589585313,-7.451425
 4271,7.3005071286\C,-8.5868882041,-10.8651342213,8.1412574315\C,-4.194
 7717146,-7.4877590278,7.4393001592\H,-11.6568007389,-9.3085188851,6.54
 83376138\H,-13.0136843595,-8.6483941025,5.5721735847\H,-13.4504964925,
 -6.1274741236,5.7770551325\H,-12.3666509012,-5.2185766767,6.8893930699
 \H,-13.9752553739,-9.8124782672,7.5126296665\H,-12.9267467311,-8.87467
 01186,8.6207262639\H,-13.3727745871,-6.3732342755,8.8248332326\H,-14.7
 041078762,-5.6879531901,7.8439176891\H,-15.286113011,-7.9644275934,8.2
 548766009\H,-8.9018618912,-10.2527350011,6.0800098541\H,-7.271146271,-
 10.9045042798,6.395285037\H,-8.5220915348,-4.4974496357,7.3106897039\H
 ,-5.5719418013,-9.5443106,7.09268372\H,-7.7826529178,-10.8719812857,8.
 8832720135\H,-9.4109982913,-10.2486288492,8.5082525625\H,-8.9452084471
 ,-11.8906658637,8.0007292994\H,-2.6468962031,-6.3819062187,7.698566299
 1\\Version=ES64L-G09RevD.01\State=1-A\HF=-1037.4523377\RMSD=3.482e-09\
 RMSF=5.166e-06\Dipole=-1.9526661,-1.7666917,0.1828319\Quadrupole=2.560
 2276,-1.4410849,-1.1191426,-2.1642766,-4.5618494,0.1307883\PG=C01 [X(C
 14H17N5O3)]\\@


 THE ENLIGHTENED ONE, BECAUSE HE SAW MANKIND DROWNING  
 IN THE GREAT SEA OF BIRTH, DEATH, AND SORROW, LONGED TO SAVE 
 THEM, FOR THIS HE WAS MOVED TO PITY.                         
 BECAUSE HE SAW MEN OF THE WORLD STRAYING IN FALSE PATHS, AND 
 NONE TO GUIDE THEM, FOR THIS HE WAS MOVED TO PITY.           
                     ..................                       
 BECAUSE HE SAW THE MEN OF THE WORLD PLOUGHING THEIR FIELDS,  
 SOWING THE SEED, TRAFFICKING, HUCKSTERING, BUYING, SELLING,  
 AND AT THE END WINNOWING NOTHING BUT BITTERNESS,             
 FOR THIS HE WAS MOVED TO PITY......                   
                   BUDAH'S PITY - UPSAKA SILA SUTRA           
 Job cpu time:       0 days  0 hours 59 minutes 15.9 seconds.
 File lengths (MBytes):  RWF=     36 Int=      0 D2E=      0 Chk=      6 Scr=      1
 Normal termination of Gaussian 09 at Mon Jul  6 10:56:55 2020.
