 Entering Gaussian System, Link 0=g09
 Input=moxifloxacina.gjf
 Output=moxifloxacina.log
 Initial command:
 /usr/local/cluster_programs/g09/l1.exe "/tmp/scratch/64214.prometeo/Gau-22167.inp" -scrdir="/tmp/scratch/64214.prometeo/"
 Entering Link 1 = /usr/local/cluster_programs/g09/l1.exe PID=     22168.
  
 Copyright (c) 1988,1990,1992,1993,1995,1998,2003,2009,2013,
            Gaussian, Inc.  All Rights Reserved.
  
 This is part of the Gaussian(R) 09 program.  It is based on
 the Gaussian(R) 03 system (copyright 2003, Gaussian, Inc.),
 the Gaussian(R) 98 system (copyright 1998, Gaussian, Inc.),
 the Gaussian(R) 94 system (copyright 1995, Gaussian, Inc.),
 the Gaussian 92(TM) system (copyright 1992, Gaussian, Inc.),
 the Gaussian 90(TM) system (copyright 1990, Gaussian, Inc.),
 the Gaussian 88(TM) system (copyright 1988, Gaussian, Inc.),
 the Gaussian 86(TM) system (copyright 1986, Carnegie Mellon
 University), and the Gaussian 82(TM) system (copyright 1983,
 Carnegie Mellon University). Gaussian is a federally registered
 trademark of Gaussian, Inc.
  
 This software contains proprietary and confidential information,
 including trade secrets, belonging to Gaussian, Inc.
  
 This software is provided under written license and may be
 used, copied, transmitted, or stored only in accord with that
 written license.
  
 The following legend is applicable only to US Government
 contracts under FAR:
  
                    RESTRICTED RIGHTS LEGEND
  
 Use, reproduction and disclosure by the US Government is
 subject to restrictions as set forth in subparagraphs (a)
 and (c) of the Commercial Computer Software - Restricted
 Rights clause in FAR 52.227-19.
  
 Gaussian, Inc.
 340 Quinnipiac St., Bldg. 40, Wallingford CT 06492
  
  
 ---------------------------------------------------------------
 Warning -- This program may not be used in any manner that
 competes with the business of Gaussian, Inc. or will provide
 assistance to any competitor of Gaussian, Inc.  The licensee
 of this program is prohibited from giving any competitor of
 Gaussian, Inc. access to this program.  By using this program,
 the user acknowledges that Gaussian, Inc. is engaged in the
 business of creating and licensing software in the field of
 computational chemistry and represents and warrants to the
 licensee that it is not a competitor of Gaussian, Inc. and that
 it will not use this program in any manner prohibited above.
 ---------------------------------------------------------------
  

 Cite this work as:
 Gaussian 09, Revision D.01,
 M. J. Frisch, G. W. Trucks, H. B. Schlegel, G. E. Scuseria, 
 M. A. Robb, J. R. Cheeseman, G. Scalmani, V. Barone, B. Mennucci, 
 G. A. Petersson, H. Nakatsuji, M. Caricato, X. Li, H. P. Hratchian, 
 A. F. Izmaylov, J. Bloino, G. Zheng, J. L. Sonnenberg, M. Hada, 
 M. Ehara, K. Toyota, R. Fukuda, J. Hasegawa, M. Ishida, T. Nakajima, 
 Y. Honda, O. Kitao, H. Nakai, T. Vreven, J. A. Montgomery, Jr., 
 J. E. Peralta, F. Ogliaro, M. Bearpark, J. J. Heyd, E. Brothers, 
 K. N. Kudin, V. N. Staroverov, T. Keith, R. Kobayashi, J. Normand, 
 K. Raghavachari, A. Rendell, J. C. Burant, S. S. Iyengar, J. Tomasi, 
 M. Cossi, N. Rega, J. M. Millam, M. Klene, J. E. Knox, J. B. Cross, 
 V. Bakken, C. Adamo, J. Jaramillo, R. Gomperts, R. E. Stratmann, 
 O. Yazyev, A. J. Austin, R. Cammi, C. Pomelli, J. W. Ochterski, 
 R. L. Martin, K. Morokuma, V. G. Zakrzewski, G. A. Voth, 
 P. Salvador, J. J. Dannenberg, S. Dapprich, A. D. Daniels, 
 O. Farkas, J. B. Foresman, J. V. Ortiz, J. Cioslowski, 
 and D. J. Fox, Gaussian, Inc., Wallingford CT, 2013.
 
 ******************************************
 Gaussian 09:  ES64L-G09RevD.01 24-Apr-2013
                21-Jul-2020 
 ******************************************
 %nprocshared=20
 Will use up to   20 processors via shared memory.
 -----------------------------------------------------
 #opt M06/lanl2dz integral=ultrafine geom=connectivity
 -----------------------------------------------------
 1/14=-1,18=20,19=15,26=4,38=1,57=2/1,3;
 2/9=110,12=2,17=6,18=5,40=1/2;
 3/5=6,6=3,11=2,16=1,25=1,30=1,71=1,74=-54,75=-5/1,2,3;
 4//1;
 5/5=2,38=5/2;
 6/7=2,8=2,9=2,10=2,28=1/1;
 7//1,2,3,16;
 1/14=-1,18=20,19=15,26=4/3(2);
 2/9=110/2;
 99//99;
 2/9=110/2;
 3/5=6,6=3,11=2,16=1,25=1,30=1,71=1,74=-54,75=-5/1,2,3;
 4/5=5,16=3,69=1/1;
 5/5=2,38=5/2;
 7//1,2,3,16;
 1/14=-1,18=20,19=15,26=4/3(-5);
 2/9=110/2;
 6/7=2,8=2,9=2,10=2,19=2,28=1/1;
 99/9=1/99;
 -------------------
 Title Card Required
 -------------------
 Symbolic Z-matrix:
 Charge =  0 Multiplicity = 1
 F(PDBName=F1,ResName=MOL,ResNum=1) 0    -1.61466  -2.66616   0.35857  L 
 O(PDBName=O2,ResName=MOL,ResNum=1) 0    -0.24943   1.93081   0.86241  L 
 O(PDBName=O3,ResName=MOL,ResNum=1) 0     3.28844  -2.87424  -0.25229  L 
 O(PDBName=O4,ResName=MOL,ResNum=1) 0     5.89846  -2.10581  -0.39914  L 
 O(PDBName=O5,ResName=MOL,ResNum=1) 0     6.36253   0.12776  -0.34759  L 
 N(PDBName=N6,ResName=MOL,ResNum=1) 0    -2.27364   0.04207   0.87038  L 
 N(PDBName=N7,ResName=MOL,ResNum=1) 0    -5.36124   1.13395  -0.87219  L 
 N(PDBName=N8,ResName=MOL,ResNum=1) 0     2.43276   1.17011   0.09286  L 
 C(PDBName=C9,ResName=MOL,ResNum=1) 0    -4.55868  -0.62457   0.7275   L 
 C(PDBName=C10,ResName=MOL,ResNum=1) 0    -4.45325   0.85229   0.24815  L 
 C(PDBName=C11,ResName=MOL,ResNum=1) 0    -3.29425  -0.77618   1.59516  L 
 C(PDBName=C12,ResName=MOL,ResNum=1) 0    -2.9235    1.05379  -0.01181  L 
 C(PDBName=C13,ResName=MOL,ResNum=1) 0    -4.5323   -1.6162   -0.45888  L 
 C(PDBName=C14,ResName=MOL,ResNum=1) 0     2.19069   2.61475  -0.00924  L 
 C(PDBName=C15,ResName=MOL,ResNum=1) 0    -5.53174  -1.20859  -1.56171  L 
 C(PDBName=C16,ResName=MOL,ResNum=1) 0     2.94491   3.39394  -1.08116  L 
 C(PDBName=C17,ResName=MOL,ResNum=1) 0     1.44627   3.13928  -1.21202  L 
 C(PDBName=C18,ResName=MOL,ResNum=1) 0    -5.2366    0.22555  -2.03354  L 
 C(PDBName=C19,ResName=MOL,ResNum=1) 0    -0.96805  -0.3689    0.61987  L 
 C(PDBName=C20,ResName=MOL,ResNum=1) 0     1.38786   0.22989   0.24273  L 
 C(PDBName=C21,ResName=MOL,ResNum=1) 0     0.06117   0.59236   0.56392  L 
 C(PDBName=C22,ResName=MOL,ResNum=1) 0     1.70059  -1.13694   0.09319  L 
 C(PDBName=C23,ResName=MOL,ResNum=1) 0    -0.61229  -1.71335   0.38424  L 
 C(PDBName=C24,ResName=MOL,ResNum=1) 0     3.70743   0.72002  -0.05916  L 
 C(PDBName=C25,ResName=MOL,ResNum=1) 0     0.68448  -2.09331   0.17017  L 
 C(PDBName=C26,ResName=MOL,ResNum=1) 0     4.0828   -0.59113  -0.15192  L 
 C(PDBName=C27,ResName=MOL,ResNum=1) 0     3.08384  -1.6511   -0.12525  L 
 C(PDBName=C28,ResName=MOL,ResNum=1) 0     5.53056  -0.78767  -0.30471  L 
 C(PDBName=C29,ResName=MOL,ResNum=1) 0    -0.53617   2.1485    2.30678  L 
 H(PDBName=H30,ResName=MOL,ResNum=1) 0    -5.47553  -0.75992   1.30897  L 
 H(PDBName=H31,ResName=MOL,ResNum=1) 0    -4.74869   1.4994    1.08292  L 
 H(PDBName=H32,ResName=MOL,ResNum=1) 0    -3.45915  -0.3608    2.59894  L 
 H(PDBName=H33,ResName=MOL,ResNum=1) 0    -2.96781  -1.8096    1.67815  L 
 H(PDBName=H34,ResName=MOL,ResNum=1) 0    -2.68213   0.8418   -1.06012  L 
 H(PDBName=H35,ResName=MOL,ResNum=1) 0    -2.58901   2.06664   0.22289  L 
 H(PDBName=H36,ResName=MOL,ResNum=1) 0    -4.76989  -2.62037  -0.08588  L 
 H(PDBName=H37,ResName=MOL,ResNum=1) 0    -3.51518  -1.66404  -0.86339  L 
 H(PDBName=H38,ResName=MOL,ResNum=1) 0     2.01392   3.10657   0.93659  L 
 H(PDBName=H39,ResName=MOL,ResNum=1) 0    -5.46579  -1.90193  -2.40835  L 
 H(PDBName=H40,ResName=MOL,ResNum=1) 0    -6.5529   -1.23356  -1.1644   L 
 H(PDBName=H41,ResName=MOL,ResNum=1) 0    -5.35695   2.12172  -1.13785  L 
 H(PDBName=H42,ResName=MOL,ResNum=1) 0     3.5952    2.84585  -1.75122  L 
 H(PDBName=H43,ResName=MOL,ResNum=1) 0     3.28444   4.38759  -0.81596  L 
 H(PDBName=H44,ResName=MOL,ResNum=1) 0     0.75065   3.94966  -1.03972  L 
 H(PDBName=H45,ResName=MOL,ResNum=1) 0     1.13763   2.40753  -1.94797  L 
 H(PDBName=H46,ResName=MOL,ResNum=1) 0    -4.23886   0.24364  -2.51011  L 
 H(PDBName=H47,ResName=MOL,ResNum=1) 0    -5.97205   0.53835  -2.78236  L 
 H(PDBName=H48,ResName=MOL,ResNum=1) 0     4.48153   1.47333  -0.12187  L 
 H(PDBName=H49,ResName=MOL,ResNum=1) 0     0.95865  -3.12845   0.01752  L 
 H(PDBName=H50,ResName=MOL,ResNum=1) 0     0.331     1.87086   2.91515  L 
 H(PDBName=H51,ResName=MOL,ResNum=1) 0    -1.40936   1.56611   2.60552  L 
 H(PDBName=H52,ResName=MOL,ResNum=1) 0    -0.73603   3.21699   2.39721  L 
 H(PDBName=H53,ResName=MOL,ResNum=1) 0     6.89046  -2.12759  -0.50007  L 
 
 Center=     -0.63846908      0.29605077     -0.04094545
 Residue   1 PDB Number     1_0 MOL charge    0.00000000 layers R        AvRTP=      0.00000000      0.00000000     90.00000000

 GradGradGradGradGradGradGradGradGradGradGradGradGradGradGradGradGradGrad
 Berny optimization.
 Initialization pass.
                           ----------------------------
                           !    Initial Parameters    !
                           ! (Angstroms and Degrees)  !
 --------------------------                            --------------------------
 ! Name  Definition              Value          Derivative Info.                !
 --------------------------------------------------------------------------------
 ! R1    R(1,23)                 1.3832         estimate D2E/DX2                !
 ! R2    R(2,21)                 1.4061         estimate D2E/DX2                !
 ! R3    R(2,29)                 1.4886         estimate D2E/DX2                !
 ! R4    R(3,27)                 1.2466         estimate D2E/DX2                !
 ! R5    R(4,28)                 1.3718         estimate D2E/DX2                !
 ! R6    R(4,53)                 0.9974         estimate D2E/DX2                !
 ! R7    R(5,28)                 1.2378         estimate D2E/DX2                !
 ! R8    R(6,11)                 1.4955         estimate D2E/DX2                !
 ! R9    R(6,12)                 1.4914         estimate D2E/DX2                !
 ! R10   R(6,19)                 1.3915         estimate D2E/DX2                !
 ! R11   R(7,10)                 1.4693         estimate D2E/DX2                !
 ! R12   R(7,18)                 1.4797         estimate D2E/DX2                !
 ! R13   R(7,41)                 1.0229         estimate D2E/DX2                !
 ! R14   R(8,14)                 1.4683         estimate D2E/DX2                !
 ! R15   R(8,20)                 1.4136         estimate D2E/DX2                !
 ! R16   R(8,24)                 1.3603         estimate D2E/DX2                !
 ! R17   R(9,10)                 1.5563         estimate D2E/DX2                !
 ! R18   R(9,11)                 1.541          estimate D2E/DX2                !
 ! R19   R(9,13)                 1.5465         estimate D2E/DX2                !
 ! R20   R(9,30)                 1.0941         estimate D2E/DX2                !
 ! R21   R(10,12)                1.5647         estimate D2E/DX2                !
 ! R22   R(10,31)                1.0968         estimate D2E/DX2                !
 ! R23   R(11,32)                1.0988         estimate D2E/DX2                !
 ! R24   R(11,33)                1.0869         estimate D2E/DX2                !
 ! R25   R(12,34)                1.0964         estimate D2E/DX2                !
 ! R26   R(12,35)                1.0922         estimate D2E/DX2                !
 ! R27   R(13,15)                1.5431         estimate D2E/DX2                !
 ! R28   R(13,36)                1.0972         estimate D2E/DX2                !
 ! R29   R(13,37)                1.0956         estimate D2E/DX2                !
 ! R30   R(14,16)                1.5248         estimate D2E/DX2                !
 ! R31   R(14,17)                1.5086         estimate D2E/DX2                !
 ! R32   R(14,38)                1.0806         estimate D2E/DX2                !
 ! R33   R(15,18)                1.5383         estimate D2E/DX2                !
 ! R34   R(15,39)                1.0963         estimate D2E/DX2                !
 ! R35   R(15,40)                1.096          estimate D2E/DX2                !
 ! R36   R(16,17)                1.5257         estimate D2E/DX2                !
 ! R37   R(16,42)                1.0827         estimate D2E/DX2                !
 ! R38   R(16,43)                1.083          estimate D2E/DX2                !
 ! R39   R(17,44)                1.0818         estimate D2E/DX2                !
 ! R40   R(17,45)                1.0828         estimate D2E/DX2                !
 ! R41   R(18,46)                1.1059         estimate D2E/DX2                !
 ! R42   R(18,47)                1.0952         estimate D2E/DX2                !
 ! R43   R(19,21)                1.4094         estimate D2E/DX2                !
 ! R44   R(19,23)                1.4105         estimate D2E/DX2                !
 ! R45   R(20,21)                1.4123         estimate D2E/DX2                !
 ! R46   R(20,22)                1.4101         estimate D2E/DX2                !
 ! R47   R(22,25)                1.3975         estimate D2E/DX2                !
 ! R48   R(22,27)                1.4918         estimate D2E/DX2                !
 ! R49   R(23,25)                1.3681         estimate D2E/DX2                !
 ! R50   R(24,26)                1.367          estimate D2E/DX2                !
 ! R51   R(24,48)                1.082          estimate D2E/DX2                !
 ! R52   R(25,49)                1.0817         estimate D2E/DX2                !
 ! R53   R(26,27)                1.4568         estimate D2E/DX2                !
 ! R54   R(26,28)                1.469          estimate D2E/DX2                !
 ! R55   R(29,50)                1.0951         estimate D2E/DX2                !
 ! R56   R(29,51)                1.0913         estimate D2E/DX2                !
 ! R57   R(29,52)                1.0908         estimate D2E/DX2                !
 ! A1    A(21,2,29)            112.8144         estimate D2E/DX2                !
 ! A2    A(28,4,53)            107.1396         estimate D2E/DX2                !
 ! A3    A(11,6,12)            111.1292         estimate D2E/DX2                !
 ! A4    A(11,6,19)            124.4708         estimate D2E/DX2                !
 ! A5    A(12,6,19)            120.1805         estimate D2E/DX2                !
 ! A6    A(10,7,18)            115.3857         estimate D2E/DX2                !
 ! A7    A(10,7,41)            112.368          estimate D2E/DX2                !
 ! A8    A(18,7,41)            112.8705         estimate D2E/DX2                !
 ! A9    A(14,8,20)            122.6769         estimate D2E/DX2                !
 ! A10   A(14,8,24)            118.1795         estimate D2E/DX2                !
 ! A11   A(20,8,24)            118.974          estimate D2E/DX2                !
 ! A12   A(10,9,11)            102.193          estimate D2E/DX2                !
 ! A13   A(10,9,13)            111.781          estimate D2E/DX2                !
 ! A14   A(10,9,30)            109.7471         estimate D2E/DX2                !
 ! A15   A(11,9,13)            110.7854         estimate D2E/DX2                !
 ! A16   A(11,9,30)            112.0978         estimate D2E/DX2                !
 ! A17   A(13,9,30)            110.0407         estimate D2E/DX2                !
 ! A18   A(7,10,9)             112.0183         estimate D2E/DX2                !
 ! A19   A(7,10,12)            116.9226         estimate D2E/DX2                !
 ! A20   A(7,10,31)            107.5041         estimate D2E/DX2                !
 ! A21   A(9,10,12)            103.8637         estimate D2E/DX2                !
 ! A22   A(9,10,31)            107.8924         estimate D2E/DX2                !
 ! A23   A(12,10,31)           108.2899         estimate D2E/DX2                !
 ! A24   A(6,11,9)             103.4896         estimate D2E/DX2                !
 ! A25   A(6,11,32)            109.775          estimate D2E/DX2                !
 ! A26   A(6,11,33)            110.6245         estimate D2E/DX2                !
 ! A27   A(9,11,32)            110.7349         estimate D2E/DX2                !
 ! A28   A(9,11,33)            112.5178         estimate D2E/DX2                !
 ! A29   A(32,11,33)           109.5574         estimate D2E/DX2                !
 ! A30   A(6,12,10)            103.909          estimate D2E/DX2                !
 ! A31   A(6,12,34)            109.7842         estimate D2E/DX2                !
 ! A32   A(6,12,35)            111.6259         estimate D2E/DX2                !
 ! A33   A(10,12,34)           110.4372         estimate D2E/DX2                !
 ! A34   A(10,12,35)           112.5289         estimate D2E/DX2                !
 ! A35   A(34,12,35)           108.5019         estimate D2E/DX2                !
 ! A36   A(9,13,15)            111.5822         estimate D2E/DX2                !
 ! A37   A(9,13,36)            108.8058         estimate D2E/DX2                !
 ! A38   A(9,13,37)            109.0912         estimate D2E/DX2                !
 ! A39   A(15,13,36)           110.1474         estimate D2E/DX2                !
 ! A40   A(15,13,37)           110.4212         estimate D2E/DX2                !
 ! A41   A(36,13,37)           106.6527         estimate D2E/DX2                !
 ! A42   A(8,14,16)            118.0415         estimate D2E/DX2                !
 ! A43   A(8,14,17)            118.6113         estimate D2E/DX2                !
 ! A44   A(8,14,38)            114.4497         estimate D2E/DX2                !
 ! A45   A(16,14,38)           117.6224         estimate D2E/DX2                !
 ! A46   A(17,14,38)           117.3129         estimate D2E/DX2                !
 ! A47   A(13,15,18)           109.9499         estimate D2E/DX2                !
 ! A48   A(13,15,39)           110.2373         estimate D2E/DX2                !
 ! A49   A(13,15,40)           109.7765         estimate D2E/DX2                !
 ! A50   A(18,15,39)           109.9489         estimate D2E/DX2                !
 ! A51   A(18,15,40)           108.1298         estimate D2E/DX2                !
 ! A52   A(39,15,40)           108.7591         estimate D2E/DX2                !
 ! A53   A(14,16,42)           118.259          estimate D2E/DX2                !
 ! A54   A(14,16,43)           116.8579         estimate D2E/DX2                !
 ! A55   A(17,16,42)           116.8958         estimate D2E/DX2                !
 ! A56   A(17,16,43)           118.8206         estimate D2E/DX2                !
 ! A57   A(42,16,43)           115.321          estimate D2E/DX2                !
 ! A58   A(14,17,44)           116.7929         estimate D2E/DX2                !
 ! A59   A(14,17,45)           116.5885         estimate D2E/DX2                !
 ! A60   A(16,17,44)           119.5318         estimate D2E/DX2                !
 ! A61   A(16,17,45)           116.813          estimate D2E/DX2                !
 ! A62   A(44,17,45)           115.5461         estimate D2E/DX2                !
 ! A63   A(7,18,15)            108.3875         estimate D2E/DX2                !
 ! A64   A(7,18,46)            113.8398         estimate D2E/DX2                !
 ! A65   A(7,18,47)            107.7419         estimate D2E/DX2                !
 ! A66   A(15,18,46)           108.6947         estimate D2E/DX2                !
 ! A67   A(15,18,47)           110.3127         estimate D2E/DX2                !
 ! A68   A(46,18,47)           107.8514         estimate D2E/DX2                !
 ! A69   A(6,19,21)            119.3985         estimate D2E/DX2                !
 ! A70   A(6,19,23)            123.2458         estimate D2E/DX2                !
 ! A71   A(21,19,23)           117.3393         estimate D2E/DX2                !
 ! A72   A(8,20,21)            123.2139         estimate D2E/DX2                !
 ! A73   A(8,20,22)            118.0039         estimate D2E/DX2                !
 ! A74   A(21,20,22)           118.7652         estimate D2E/DX2                !
 ! A75   A(2,21,19)            118.6523         estimate D2E/DX2                !
 ! A76   A(2,21,20)            120.0058         estimate D2E/DX2                !
 ! A77   A(19,21,20)           121.3296         estimate D2E/DX2                !
 ! A78   A(20,22,25)           119.7515         estimate D2E/DX2                !
 ! A79   A(20,22,27)           123.7285         estimate D2E/DX2                !
 ! A80   A(25,22,27)           116.5116         estimate D2E/DX2                !
 ! A81   A(1,23,19)            118.4827         estimate D2E/DX2                !
 ! A82   A(1,23,25)            119.5157         estimate D2E/DX2                !
 ! A83   A(19,23,25)           121.9987         estimate D2E/DX2                !
 ! A84   A(8,24,26)            125.6088         estimate D2E/DX2                !
 ! A85   A(8,24,48)            116.521          estimate D2E/DX2                !
 ! A86   A(26,24,48)           117.8666         estimate D2E/DX2                !
 ! A87   A(22,25,23)           120.5122         estimate D2E/DX2                !
 ! A88   A(22,25,49)           117.5706         estimate D2E/DX2                !
 ! A89   A(23,25,49)           121.8772         estimate D2E/DX2                !
 ! A90   A(24,26,27)           120.5542         estimate D2E/DX2                !
 ! A91   A(24,26,28)           113.9543         estimate D2E/DX2                !
 ! A92   A(27,26,28)           125.4775         estimate D2E/DX2                !
 ! A93   A(3,27,22)            120.3496         estimate D2E/DX2                !
 ! A94   A(3,27,26)            126.8335         estimate D2E/DX2                !
 ! A95   A(22,27,26)           112.8143         estimate D2E/DX2                !
 ! A96   A(4,28,5)             121.872          estimate D2E/DX2                !
 ! A97   A(4,28,26)            113.5801         estimate D2E/DX2                !
 ! A98   A(5,28,26)            124.5479         estimate D2E/DX2                !
 ! A99   A(2,29,50)            110.4536         estimate D2E/DX2                !
 ! A100  A(2,29,51)            109.9815         estimate D2E/DX2                !
 ! A101  A(2,29,52)            105.0104         estimate D2E/DX2                !
 ! A102  A(50,29,51)           110.2573         estimate D2E/DX2                !
 ! A103  A(50,29,52)           110.328          estimate D2E/DX2                !
 ! A104  A(51,29,52)           110.699          estimate D2E/DX2                !
 ! D1    D(29,2,21,19)          70.849          estimate D2E/DX2                !
 ! D2    D(29,2,21,20)        -107.8927         estimate D2E/DX2                !
 ! D3    D(21,2,29,50)          59.8466         estimate D2E/DX2                !
 ! D4    D(21,2,29,51)         -62.0788         estimate D2E/DX2                !
 ! D5    D(21,2,29,52)         178.7853         estimate D2E/DX2                !
 ! D6    D(53,4,28,5)           -0.0632         estimate D2E/DX2                !
 ! D7    D(53,4,28,26)         179.9289         estimate D2E/DX2                !
 ! D8    D(12,6,11,9)           21.9219         estimate D2E/DX2                !
 ! D9    D(12,6,11,32)         -96.3171         estimate D2E/DX2                !
 ! D10   D(12,6,11,33)         142.6584         estimate D2E/DX2                !
 ! D11   D(19,6,11,9)         -134.8673         estimate D2E/DX2                !
 ! D12   D(19,6,11,32)         106.8936         estimate D2E/DX2                !
 ! D13   D(19,6,11,33)         -14.1309         estimate D2E/DX2                !
 ! D14   D(11,6,12,10)           2.0465         estimate D2E/DX2                !
 ! D15   D(11,6,12,34)        -116.0769         estimate D2E/DX2                !
 ! D16   D(11,6,12,35)         123.5661         estimate D2E/DX2                !
 ! D17   D(19,6,12,10)         159.9688         estimate D2E/DX2                !
 ! D18   D(19,6,12,34)          41.8454         estimate D2E/DX2                !
 ! D19   D(19,6,12,35)         -78.5116         estimate D2E/DX2                !
 ! D20   D(11,6,19,21)        -148.5807         estimate D2E/DX2                !
 ! D21   D(11,6,19,23)          32.929          estimate D2E/DX2                !
 ! D22   D(12,6,19,21)          56.5867         estimate D2E/DX2                !
 ! D23   D(12,6,19,23)        -121.9036         estimate D2E/DX2                !
 ! D24   D(18,7,10,9)          -53.6985         estimate D2E/DX2                !
 ! D25   D(18,7,10,12)          65.9875         estimate D2E/DX2                !
 ! D26   D(18,7,10,31)        -172.0598         estimate D2E/DX2                !
 ! D27   D(41,7,10,9)          174.9661         estimate D2E/DX2                !
 ! D28   D(41,7,10,12)         -65.348          estimate D2E/DX2                !
 ! D29   D(41,7,10,31)          56.6048         estimate D2E/DX2                !
 ! D30   D(10,7,18,15)          59.9539         estimate D2E/DX2                !
 ! D31   D(10,7,18,46)         -61.1214         estimate D2E/DX2                !
 ! D32   D(10,7,18,47)         179.3236         estimate D2E/DX2                !
 ! D33   D(41,7,18,15)        -168.9497         estimate D2E/DX2                !
 ! D34   D(41,7,18,46)          69.975          estimate D2E/DX2                !
 ! D35   D(41,7,18,47)         -49.58           estimate D2E/DX2                !
 ! D36   D(20,8,14,16)        -135.0986         estimate D2E/DX2                !
 ! D37   D(20,8,14,17)         -65.4092         estimate D2E/DX2                !
 ! D38   D(20,8,14,38)          79.8936         estimate D2E/DX2                !
 ! D39   D(24,8,14,16)          40.1148         estimate D2E/DX2                !
 ! D40   D(24,8,14,17)         109.8042         estimate D2E/DX2                !
 ! D41   D(24,8,14,38)        -104.893          estimate D2E/DX2                !
 ! D42   D(14,8,20,21)         -12.5873         estimate D2E/DX2                !
 ! D43   D(14,8,20,22)         168.9346         estimate D2E/DX2                !
 ! D44   D(24,8,20,21)         172.2357         estimate D2E/DX2                !
 ! D45   D(24,8,20,22)          -6.2425         estimate D2E/DX2                !
 ! D46   D(14,8,24,26)        -171.7758         estimate D2E/DX2                !
 ! D47   D(14,8,24,48)           7.5071         estimate D2E/DX2                !
 ! D48   D(20,8,24,26)           3.6192         estimate D2E/DX2                !
 ! D49   D(20,8,24,48)        -177.0979         estimate D2E/DX2                !
 ! D50   D(11,9,10,7)          165.1934         estimate D2E/DX2                !
 ! D51   D(11,9,10,12)          38.1176         estimate D2E/DX2                !
 ! D52   D(11,9,10,31)         -76.676          estimate D2E/DX2                !
 ! D53   D(13,9,10,7)           46.6833         estimate D2E/DX2                !
 ! D54   D(13,9,10,12)         -80.3925         estimate D2E/DX2                !
 ! D55   D(13,9,10,31)         164.814          estimate D2E/DX2                !
 ! D56   D(30,9,10,7)          -75.6968         estimate D2E/DX2                !
 ! D57   D(30,9,10,12)         157.2274         estimate D2E/DX2                !
 ! D58   D(30,9,10,31)          42.4339         estimate D2E/DX2                !
 ! D59   D(10,9,11,6)          -36.5049         estimate D2E/DX2                !
 ! D60   D(10,9,11,32)          81.0654         estimate D2E/DX2                !
 ! D61   D(10,9,11,33)        -155.9495         estimate D2E/DX2                !
 ! D62   D(13,9,11,6)           82.7088         estimate D2E/DX2                !
 ! D63   D(13,9,11,32)        -159.721          estimate D2E/DX2                !
 ! D64   D(13,9,11,33)         -36.7358         estimate D2E/DX2                !
 ! D65   D(30,9,11,6)         -153.9438         estimate D2E/DX2                !
 ! D66   D(30,9,11,32)         -36.3735         estimate D2E/DX2                !
 ! D67   D(30,9,11,33)          86.6116         estimate D2E/DX2                !
 ! D68   D(10,9,13,15)         -49.2726         estimate D2E/DX2                !
 ! D69   D(10,9,13,36)        -171.0083         estimate D2E/DX2                !
 ! D70   D(10,9,13,37)          73.0017         estimate D2E/DX2                !
 ! D71   D(11,9,13,15)        -162.5354         estimate D2E/DX2                !
 ! D72   D(11,9,13,36)          75.729          estimate D2E/DX2                !
 ! D73   D(11,9,13,37)         -40.261          estimate D2E/DX2                !
 ! D74   D(30,9,13,15)          72.9394         estimate D2E/DX2                !
 ! D75   D(30,9,13,36)         -48.7963         estimate D2E/DX2                !
 ! D76   D(30,9,13,37)        -164.7863         estimate D2E/DX2                !
 ! D77   D(7,10,12,6)         -148.956          estimate D2E/DX2                !
 ! D78   D(7,10,12,34)         -31.2841         estimate D2E/DX2                !
 ! D79   D(7,10,12,35)          90.1288         estimate D2E/DX2                !
 ! D80   D(9,10,12,6)          -25.0091         estimate D2E/DX2                !
 ! D81   D(9,10,12,34)          92.6627         estimate D2E/DX2                !
 ! D82   D(9,10,12,35)        -145.9244         estimate D2E/DX2                !
 ! D83   D(31,10,12,6)          89.5014         estimate D2E/DX2                !
 ! D84   D(31,10,12,34)       -152.8267         estimate D2E/DX2                !
 ! D85   D(31,10,12,35)        -31.4138         estimate D2E/DX2                !
 ! D86   D(9,13,15,18)          56.32           estimate D2E/DX2                !
 ! D87   D(9,13,15,39)         177.6968         estimate D2E/DX2                !
 ! D88   D(9,13,15,40)         -62.5155         estimate D2E/DX2                !
 ! D89   D(36,13,15,18)        177.2767         estimate D2E/DX2                !
 ! D90   D(36,13,15,39)        -61.3465         estimate D2E/DX2                !
 ! D91   D(36,13,15,40)         58.4412         estimate D2E/DX2                !
 ! D92   D(37,13,15,18)        -65.1866         estimate D2E/DX2                !
 ! D93   D(37,13,15,39)         56.1902         estimate D2E/DX2                !
 ! D94   D(37,13,15,40)        175.9779         estimate D2E/DX2                !
 ! D95   D(8,14,16,42)           2.6042         estimate D2E/DX2                !
 ! D96   D(8,14,16,43)        -142.1292         estimate D2E/DX2                !
 ! D97   D(38,14,16,42)        146.5043         estimate D2E/DX2                !
 ! D98   D(38,14,16,43)          1.7709         estimate D2E/DX2                !
 ! D99   D(8,14,17,44)         141.831          estimate D2E/DX2                !
 ! D100  D(8,14,17,45)          -0.6342         estimate D2E/DX2                !
 ! D101  D(38,14,17,44)         -2.4922         estimate D2E/DX2                !
 ! D102  D(38,14,17,45)       -144.9574         estimate D2E/DX2                !
 ! D103  D(13,15,18,7)         -59.5665         estimate D2E/DX2                !
 ! D104  D(13,15,18,46)         64.6368         estimate D2E/DX2                !
 ! D105  D(13,15,18,47)       -177.3069         estimate D2E/DX2                !
 ! D106  D(39,15,18,7)         178.8843         estimate D2E/DX2                !
 ! D107  D(39,15,18,46)        -56.9124         estimate D2E/DX2                !
 ! D108  D(39,15,18,47)         61.1439         estimate D2E/DX2                !
 ! D109  D(40,15,18,7)          60.2752         estimate D2E/DX2                !
 ! D110  D(40,15,18,46)       -175.5216         estimate D2E/DX2                !
 ! D111  D(40,15,18,47)        -57.4652         estimate D2E/DX2                !
 ! D112  D(42,16,17,44)       -145.6986         estimate D2E/DX2                !
 ! D113  D(42,16,17,45)          1.6171         estimate D2E/DX2                !
 ! D114  D(43,16,17,44)          0.0381         estimate D2E/DX2                !
 ! D115  D(43,16,17,45)        147.3537         estimate D2E/DX2                !
 ! D116  D(6,19,21,2)            4.6689         estimate D2E/DX2                !
 ! D117  D(6,19,21,20)        -176.6067         estimate D2E/DX2                !
 ! D118  D(23,19,21,2)        -176.7525         estimate D2E/DX2                !
 ! D119  D(23,19,21,20)          1.9719         estimate D2E/DX2                !
 ! D120  D(6,19,23,1)            2.1144         estimate D2E/DX2                !
 ! D121  D(6,19,23,25)        -178.5036         estimate D2E/DX2                !
 ! D122  D(21,19,23,1)        -176.405          estimate D2E/DX2                !
 ! D123  D(21,19,23,25)          2.9771         estimate D2E/DX2                !
 ! D124  D(8,20,21,2)           -5.4065         estimate D2E/DX2                !
 ! D125  D(8,20,21,19)         175.8861         estimate D2E/DX2                !
 ! D126  D(22,20,21,2)         173.0607         estimate D2E/DX2                !
 ! D127  D(22,20,21,19)         -5.6467         estimate D2E/DX2                !
 ! D128  D(8,20,22,25)        -176.9445         estimate D2E/DX2                !
 ! D129  D(8,20,22,27)           4.1462         estimate D2E/DX2                !
 ! D130  D(21,20,22,25)          4.5079         estimate D2E/DX2                !
 ! D131  D(21,20,22,27)       -174.4014         estimate D2E/DX2                !
 ! D132  D(20,22,25,23)          0.2598         estimate D2E/DX2                !
 ! D133  D(20,22,25,49)        178.0003         estimate D2E/DX2                !
 ! D134  D(27,22,25,23)        179.2462         estimate D2E/DX2                !
 ! D135  D(27,22,25,49)         -3.0133         estimate D2E/DX2                !
 ! D136  D(20,22,27,3)        -179.8487         estimate D2E/DX2                !
 ! D137  D(20,22,27,26)          0.6942         estimate D2E/DX2                !
 ! D138  D(25,22,27,3)           1.2095         estimate D2E/DX2                !
 ! D139  D(25,22,27,26)       -178.2476         estimate D2E/DX2                !
 ! D140  D(1,23,25,22)         175.2515         estimate D2E/DX2                !
 ! D141  D(1,23,25,49)          -2.3898         estimate D2E/DX2                !
 ! D142  D(19,23,25,22)         -4.1244         estimate D2E/DX2                !
 ! D143  D(19,23,25,49)        178.2343         estimate D2E/DX2                !
 ! D144  D(8,24,26,27)           1.5861         estimate D2E/DX2                !
 ! D145  D(8,24,26,28)        -179.7009         estimate D2E/DX2                !
 ! D146  D(48,24,26,27)       -177.688          estimate D2E/DX2                !
 ! D147  D(48,24,26,28)          1.025          estimate D2E/DX2                !
 ! D148  D(24,26,27,3)         177.0321         estimate D2E/DX2                !
 ! D149  D(24,26,27,22)         -3.5532         estimate D2E/DX2                !
 ! D150  D(28,26,27,3)          -1.5236         estimate D2E/DX2                !
 ! D151  D(28,26,27,22)        177.8911         estimate D2E/DX2                !
 ! D152  D(24,26,28,4)        -179.9042         estimate D2E/DX2                !
 ! D153  D(24,26,28,5)           0.0876         estimate D2E/DX2                !
 ! D154  D(27,26,28,4)          -1.2652         estimate D2E/DX2                !
 ! D155  D(27,26,28,5)         178.7266         estimate D2E/DX2                !
 --------------------------------------------------------------------------------
 Trust Radius=3.00D-01 FncErr=1.00D-07 GrdErr=1.00D-06
 Number of steps in this run=    318 maximum allowed number of steps=    318.
 GradGradGradGradGradGradGradGradGradGradGradGradGradGradGradGradGradGrad

 Stoichiometry    C21H24FN3O4
 Framework group  C1[X(C21H24FN3O4)]
 Deg. of freedom   153
 Full point group                 C1      NOp   1
 Largest Abelian subgroup         C1      NOp   1
 Largest concise Abelian subgroup C1      NOp   1
                         Standard orientation:                         
 ---------------------------------------------------------------------
 Center     Atomic      Atomic             Coordinates (Angstroms)
 Number     Number       Type             X           Y           Z
 ---------------------------------------------------------------------
      1          9           0       -1.614661   -2.666155    0.358569
      2          8           0       -0.249427    1.930805    0.862408
      3          8           0        3.288438   -2.874240   -0.252293
      4          8           0        5.898457   -2.105811   -0.399136
      5          8           0        6.362527    0.127763   -0.347586
      6          7           0       -2.273635    0.042072    0.870375
      7          7           0       -5.361237    1.133950   -0.872193
      8          7           0        2.432759    1.170111    0.092861
      9          6           0       -4.558681   -0.624569    0.727498
     10          6           0       -4.453250    0.852285    0.248148
     11          6           0       -3.294251   -0.776178    1.595162
     12          6           0       -2.923503    1.053788   -0.011811
     13          6           0       -4.532295   -1.616204   -0.458875
     14          6           0        2.190694    2.614745   -0.009240
     15          6           0       -5.531736   -1.208593   -1.561707
     16          6           0        2.944908    3.393941   -1.081156
     17          6           0        1.446267    3.139284   -1.212018
     18          6           0       -5.236605    0.225549   -2.033543
     19          6           0       -0.968052   -0.368901    0.619868
     20          6           0        1.387860    0.229893    0.242728
     21          6           0        0.061170    0.592358    0.563920
     22          6           0        1.700594   -1.136935    0.093190
     23          6           0       -0.612293   -1.713348    0.384239
     24          6           0        3.707433    0.720023   -0.059159
     25          6           0        0.684481   -2.093306    0.170168
     26          6           0        4.082804   -0.591134   -0.151918
     27          6           0        3.083835   -1.651099   -0.125245
     28          6           0        5.530557   -0.787668   -0.304714
     29          6           0       -0.536165    2.148497    2.306775
     30          1           0       -5.475530   -0.759924    1.308974
     31          1           0       -4.748692    1.499404    1.082921
     32          1           0       -3.459151   -0.360802    2.598939
     33          1           0       -2.967805   -1.809598    1.678149
     34          1           0       -2.682125    0.841801   -1.060120
     35          1           0       -2.589006    2.066642    0.222887
     36          1           0       -4.769890   -2.620369   -0.085883
     37          1           0       -3.515182   -1.664039   -0.863393
     38          1           0        2.013917    3.106569    0.936591
     39          1           0       -5.465789   -1.901926   -2.408352
     40          1           0       -6.552903   -1.233561   -1.164400
     41          1           0       -5.356948    2.121715   -1.137849
     42          1           0        3.595201    2.845846   -1.751222
     43          1           0        3.284440    4.387585   -0.815964
     44          1           0        0.750653    3.949658   -1.039716
     45          1           0        1.137634    2.407529   -1.947974
     46          1           0       -4.238860    0.243644   -2.510107
     47          1           0       -5.972054    0.538348   -2.782356
     48          1           0        4.481527    1.473326   -0.121869
     49          1           0        0.958646   -3.128454    0.017517
     50          1           0        0.330999    1.870860    2.915149
     51          1           0       -1.409360    1.566110    2.605522
     52          1           0       -0.736032    3.216994    2.397205
     53          1           0        6.890456   -2.127590   -0.500073
 ---------------------------------------------------------------------
 Rotational constants (GHZ):      0.3299655      0.0922378      0.0797506
 Standard basis: LANL2DZ (5D, 7F)
 There are   309 symmetry adapted cartesian basis functions of A   symmetry.
 There are   309 symmetry adapted basis functions of A   symmetry.
   309 basis functions,   821 primitive gaussians,   309 cartesian basis functions
   106 alpha electrons      106 beta electrons
       nuclear repulsion energy      2891.8198346825 Hartrees.
 NAtoms=   53 NActive=   53 NUniq=   53 SFac= 1.00D+00 NAtFMM=   60 NAOKFM=F Big=F
 Integral buffers will be    131072 words long.
 Raffenetti 2 integral format.
 Two-electron integral symmetry is turned on.
 One-electron integrals computed using PRISM.
 PrsmSu:  requested number of processors reduced to:   8 ShMem   1 Linda.
   1 Symmetry operations used in ECPInt.
 ECPInt:  NShTT=   18721 NPrTT=  142130 LenC2=   16448 LenP2D=   67724.
 LDataN:  DoStor=T MaxTD1= 2 Len=   12
 Number of processors reduced to   7 by ecpmxn.
 NBasis=   309 RedAO= T EigKep=  1.65D-04  NBF=   309
 NBsUse=   309 1.00D-06 EigRej= -1.00D+00 NBFU=   309
 ExpMin= 1.15D-01 ExpMax= 1.00D+04 ExpMxC= 3.50D+02 IAcc=3 IRadAn=         5 AccDes= 0.00D+00
 Harris functional with IExCor= 1009 and IRadAn=       5 diagonalized for initial guess.
 HarFok:  IExCor= 1009 AccDes= 0.00D+00 IRadAn=         5 IDoV= 1 UseB2=F ITyADJ=14
 ICtDFT=  3500011 ScaDFX=  1.000000  1.000000  1.000000  1.000000
 FoFCou: FMM=F IPFlag=           0 FMFlag=      100000 FMFlg1=           0
         NFxFlg=           0 DoJE=T BraDBF=F KetDBF=T FulRan=T
         wScrn=  0.000000 ICntrl=     500 IOpCl=  0 I1Cent=   200000004 NGrid=           0
         NMat0=    1 NMatS0=      1 NMatT0=    0 NMatD0=    1 NMtDS0=    0 NMtDT0=    0
 Petite list used in FoFCou.
 Requested convergence on RMS density matrix=1.00D-08 within 128 cycles.
 Requested convergence on MAX density matrix=1.00D-06.
 Requested convergence on             energy=1.00D-06.
 No special actions if energy rises.
 Integral accuracy reduced to 1.0D-05 until final iterations.
 Initial convergence to 1.0D-05 achieved.  Increase integral accuracy.
 SCF Done:  E(RM06) =  -1378.56723032     A.U. after   17 cycles
            NFock= 17  Conv=0.89D-08     -V/T= 2.0050

 **********************************************************************

            Population analysis using the SCF density.

 **********************************************************************

 Orbital symmetries:
       Occupied  (A) (A) (A) (A) (A) (A) (A) (A) (A) (A) (A) (A)
                 (A) (A) (A) (A) (A) (A) (A) (A) (A) (A) (A) (A)
                 (A) (A) (A) (A) (A) (A) (A) (A) (A) (A) (A) (A)
                 (A) (A) (A) (A) (A) (A) (A) (A) (A) (A) (A) (A)
                 (A) (A) (A) (A) (A) (A) (A) (A) (A) (A) (A) (A)
                 (A) (A) (A) (A) (A) (A) (A) (A) (A) (A) (A) (A)
                 (A) (A) (A) (A) (A) (A) (A) (A) (A) (A) (A) (A)
                 (A) (A) (A) (A) (A) (A) (A) (A) (A) (A) (A) (A)
                 (A) (A) (A) (A) (A) (A) (A) (A) (A) (A)
       Virtual   (A) (A) (A) (A) (A) (A) (A) (A) (A) (A) (A) (A)
                 (A) (A) (A) (A) (A) (A) (A) (A) (A) (A) (A) (A)
                 (A) (A) (A) (A) (A) (A) (A) (A) (A) (A) (A) (A)
                 (A) (A) (A) (A) (A) (A) (A) (A) (A) (A) (A) (A)
                 (A) (A) (A) (A) (A) (A) (A) (A) (A) (A) (A) (A)
                 (A) (A) (A) (A) (A) (A) (A) (A) (A) (A) (A) (A)
                 (A) (A) (A) (A) (A) (A) (A) (A) (A) (A) (A) (A)
                 (A) (A) (A) (A) (A) (A) (A) (A) (A) (A) (A) (A)
                 (A) (A) (A) (A) (A) (A) (A) (A) (A) (A) (A) (A)
                 (A) (A) (A) (A) (A) (A) (A) (A) (A) (A) (A) (A)
                 (A) (A) (A) (A) (A) (A) (A) (A) (A) (A) (A) (A)
                 (A) (A) (A) (A) (A) (A) (A) (A) (A) (A) (A) (A)
                 (A) (A) (A) (A) (A) (A) (A) (A) (A) (A) (A) (A)
                 (A) (A) (A) (A) (A) (A) (A) (A) (A) (A) (A) (A)
                 (A) (A) (A) (A) (A) (A) (A) (A) (A) (A) (A) (A)
                 (A) (A) (A) (A) (A) (A) (A) (A) (A) (A) (A) (A)
                 (A) (A) (A) (A) (A) (A) (A) (A) (A) (A) (A)
 The electronic state is 1-A.
 Alpha  occ. eigenvalues --  -24.80667 -19.25937 -19.25602 -19.21445 -19.18818
 Alpha  occ. eigenvalues --  -14.48499 -14.41985 -14.38864 -10.39956 -10.35290
 Alpha  occ. eigenvalues --  -10.34126 -10.33434 -10.33282 -10.32951 -10.32451
 Alpha  occ. eigenvalues --  -10.31879 -10.31416 -10.28929 -10.28324 -10.28208
 Alpha  occ. eigenvalues --  -10.27714 -10.27380 -10.27361 -10.27085 -10.27001
 Alpha  occ. eigenvalues --  -10.26943 -10.25702 -10.23984 -10.23955  -1.26191
 Alpha  occ. eigenvalues --   -1.13172  -1.08533  -1.04766  -1.04287  -1.02639
 Alpha  occ. eigenvalues --   -0.97118  -0.92391  -0.90184  -0.88308  -0.83236
 Alpha  occ. eigenvalues --   -0.81983  -0.79258  -0.78703  -0.76540  -0.73859
 Alpha  occ. eigenvalues --   -0.72336  -0.70499  -0.68592  -0.67096  -0.65651
 Alpha  occ. eigenvalues --   -0.63588  -0.62863  -0.62350  -0.61499  -0.60897
 Alpha  occ. eigenvalues --   -0.57658  -0.57020  -0.56303  -0.55721  -0.53829
 Alpha  occ. eigenvalues --   -0.52647  -0.52332  -0.51729  -0.51009  -0.50000
 Alpha  occ. eigenvalues --   -0.49672  -0.48699  -0.48246  -0.47928  -0.47836
 Alpha  occ. eigenvalues --   -0.47000  -0.46509  -0.46352  -0.45062  -0.44823
 Alpha  occ. eigenvalues --   -0.44148  -0.43772  -0.43337  -0.42995  -0.42583
 Alpha  occ. eigenvalues --   -0.41026  -0.40855  -0.40670  -0.40039  -0.39758
 Alpha  occ. eigenvalues --   -0.39566  -0.39224  -0.38774  -0.38366  -0.37397
 Alpha  occ. eigenvalues --   -0.36247  -0.36183  -0.33888  -0.33689  -0.33249
 Alpha  occ. eigenvalues --   -0.32586  -0.32405  -0.31857  -0.30636  -0.29763
 Alpha  occ. eigenvalues --   -0.29039  -0.27880  -0.24570  -0.24013  -0.23084
 Alpha  occ. eigenvalues --   -0.22152
 Alpha virt. eigenvalues --   -0.05399  -0.04465  -0.00139   0.02696   0.06044
 Alpha virt. eigenvalues --    0.08345   0.09027   0.09290   0.09859   0.10349
 Alpha virt. eigenvalues --    0.10404   0.11343   0.11725   0.12506   0.12919
 Alpha virt. eigenvalues --    0.13124   0.13515   0.13741   0.14517   0.15373
 Alpha virt. eigenvalues --    0.15542   0.16669   0.16739   0.17252   0.17581
 Alpha virt. eigenvalues --    0.17711   0.18166   0.18523   0.18829   0.19087
 Alpha virt. eigenvalues --    0.19649   0.20064   0.20912   0.21245   0.21329
 Alpha virt. eigenvalues --    0.21816   0.22339   0.22678   0.22932   0.23251
 Alpha virt. eigenvalues --    0.23366   0.24225   0.24396   0.24956   0.25289
 Alpha virt. eigenvalues --    0.25510   0.26100   0.26339   0.26701   0.27232
 Alpha virt. eigenvalues --    0.27489   0.27950   0.28057   0.28897   0.29466
 Alpha virt. eigenvalues --    0.29872   0.30092   0.31097   0.31258   0.31616
 Alpha virt. eigenvalues --    0.31858   0.32546   0.32885   0.33244   0.34103
 Alpha virt. eigenvalues --    0.34255   0.34382   0.35030   0.35266   0.35545
 Alpha virt. eigenvalues --    0.36014   0.36112   0.36372   0.37084   0.37292
 Alpha virt. eigenvalues --    0.38323   0.38760   0.39896   0.40436   0.40987
 Alpha virt. eigenvalues --    0.41559   0.42016   0.42554   0.42965   0.43866
 Alpha virt. eigenvalues --    0.44072   0.44342   0.44624   0.45319   0.45627
 Alpha virt. eigenvalues --    0.46316   0.47063   0.47480   0.47837   0.48017
 Alpha virt. eigenvalues --    0.48487   0.49179   0.50411   0.50548   0.51385
 Alpha virt. eigenvalues --    0.51962   0.52208   0.52862   0.53502   0.53560
 Alpha virt. eigenvalues --    0.54753   0.55089   0.56971   0.57158   0.57556
 Alpha virt. eigenvalues --    0.58466   0.58808   0.60059   0.60285   0.61996
 Alpha virt. eigenvalues --    0.63379   0.64613   0.65783   0.67091   0.68478
 Alpha virt. eigenvalues --    0.68767   0.69896   0.70705   0.71583   0.73010
 Alpha virt. eigenvalues --    0.74836   0.75187   0.76990   0.77154   0.79659
 Alpha virt. eigenvalues --    0.82980   0.83393   0.84110   0.85450   0.85974
 Alpha virt. eigenvalues --    0.86524   0.87815   0.89012   0.89615   0.91245
 Alpha virt. eigenvalues --    0.91796   0.92952   0.94010   0.95825   0.96120
 Alpha virt. eigenvalues --    0.98877   1.00800   1.02016   1.02256   1.03335
 Alpha virt. eigenvalues --    1.03819   1.05332   1.05807   1.06364   1.06571
 Alpha virt. eigenvalues --    1.07487   1.09575   1.10079   1.10967   1.11326
 Alpha virt. eigenvalues --    1.12286   1.13297   1.14119   1.14724   1.15096
 Alpha virt. eigenvalues --    1.16272   1.17494   1.18282   1.19289   1.20407
 Alpha virt. eigenvalues --    1.21174   1.22050   1.22840   1.24035   1.25129
 Alpha virt. eigenvalues --    1.26946   1.28411   1.29191   1.29274   1.31262
 Alpha virt. eigenvalues --    1.32957   1.33309   1.36328   1.39576   1.40788
 Alpha virt. eigenvalues --    1.46038   1.47933   1.52693   1.52805   1.54983
 Alpha virt. eigenvalues --    1.57716   1.60383   1.62215   1.65442   1.67252
 Alpha virt. eigenvalues --    1.79302   1.82795   1.85645   1.91920   1.97417
 Alpha virt. eigenvalues --    2.01562   2.10364   2.27089
          Condensed to atoms (all electrons):
 Mulliken charges:
               1
     1  F   -0.257439
     2  O   -0.388517
     3  O   -0.281707
     4  O   -0.454266
     5  O   -0.345673
     6  N   -0.278573
     7  N   -0.376125
     8  N   -0.226808
     9  C   -0.115332
    10  C   -0.158283
    11  C   -0.457260
    12  C   -0.398668
    13  C   -0.431821
    14  C   -0.061396
    15  C   -0.363895
    16  C   -0.528754
    17  C   -0.456499
    18  C   -0.395281
    19  C    0.208366
    20  C    0.205131
    21  C    0.181412
    22  C    0.221723
    23  C    0.295045
    24  C   -0.286585
    25  C   -0.652840
    26  C    0.082611
    27  C    0.143030
    28  C    0.198734
    29  C   -0.504118
    30  H    0.245294
    31  H    0.236572
    32  H    0.223130
    33  H    0.254819
    34  H    0.224283
    35  H    0.237172
    36  H    0.219206
    37  H    0.217625
    38  H    0.258686
    39  H    0.191820
    40  H    0.203669
    41  H    0.277491
    42  H    0.244299
    43  H    0.250144
    44  H    0.261327
    45  H    0.235371
    46  H    0.173686
    47  H    0.211857
    48  H    0.297969
    49  H    0.302099
    50  H    0.225301
    51  H    0.254486
    52  H    0.233698
    53  H    0.403783
 Sum of Mulliken charges =   0.00000
 Mulliken charges with hydrogens summed into heavy atoms:
               1
     1  F   -0.257439
     2  O   -0.388517
     3  O   -0.281707
     4  O   -0.050483
     5  O   -0.345673
     6  N   -0.278573
     7  N   -0.098634
     8  N   -0.226808
     9  C    0.129961
    10  C    0.078289
    11  C    0.020689
    12  C    0.062787
    13  C    0.005011
    14  C    0.197289
    15  C    0.031593
    16  C   -0.034311
    17  C    0.040200
    18  C   -0.009738
    19  C    0.208366
    20  C    0.205131
    21  C    0.181412
    22  C    0.221723
    23  C    0.295045
    24  C    0.011384
    25  C   -0.350740
    26  C    0.082611
    27  C    0.143030
    28  C    0.198734
    29  C    0.209366
 Electronic spatial extent (au):  <R**2>=          13295.0468
 Charge=              0.0000 electrons
 Dipole moment (field-independent basis, Debye):
    X=             -4.6247    Y=              6.6515    Z=              1.3598  Tot=              8.2146
 Quadrupole moment (field-independent basis, Debye-Ang):
   XX=           -186.2001   YY=           -169.9577   ZZ=           -158.3791
   XY=              7.9720   XZ=              0.9795   YZ=              1.6733
 Traceless Quadrupole moment (field-independent basis, Debye-Ang):
   XX=            -14.6878   YY=              1.5546   ZZ=             13.1332
   XY=              7.9720   XZ=              0.9795   YZ=              1.6733
 Octapole moment (field-independent basis, Debye-Ang**2):
  XXX=            -37.9734  YYY=             86.4662  ZZZ=             11.8147  XYY=            -29.3483
  XXY=            -22.5146  XXZ=             -9.9872  XZZ=            -17.9345  YZZ=              8.8516
  YYZ=             12.3588  XYZ=              4.0921
 Hexadecapole moment (field-independent basis, Debye-Ang**3):
 XXXX=         -13684.3514 YYYY=          -3083.0378 ZZZZ=          -1059.4658 XXXY=           -458.8959
 XXXZ=            -10.4555 YYYX=            131.3509 YYYZ=             28.2034 ZZZX=             -0.2419
 ZZZY=             43.7829 XXYY=          -2611.2037 XXZZ=          -2225.0825 YYZZ=           -677.3281
 XXYZ=             -6.1719 YYXZ=             12.2671 ZZXY=            -28.3226
 N-N= 2.891819834682D+03 E-N=-9.002921204954D+03  KE= 1.371769235484D+03
 PrsmSu:  requested number of processors reduced to:   8 ShMem   1 Linda.
 PrsmSu:  requested number of processors reduced to:  18 ShMem   1 Linda.
   1 Symmetry operations used in ECPInt.
 ECPInt:  NShTT=   18721 NPrTT=  142130 LenC2=   16448 LenP2D=   67724.
 LDataN:  DoStor=T MaxTD1= 3 Len=   28
 Number of processors reduced to   7 by ecpmxn.
 Calling FoFJK, ICntrl=      2127 FMM=F ISym2X=0 I1Cent= 0 IOpClX= 0 NMat=1 NMatS=1 NMatT=0.
 CoulSu:  requested number of processors reduced to:  17 ShMem   1 Linda.
 CalDSu:  requested number of processors reduced to:  19 ShMem   1 Linda.
 ***** Axes restored to original set *****
 -------------------------------------------------------------------
 Center     Atomic                   Forces (Hartrees/Bohr)
 Number     Number              X              Y              Z
 -------------------------------------------------------------------
      1        9           0.000127845   -0.006372663   -0.001094262
      2        8          -0.001721999   -0.005974310    0.016318035
      3        8           0.001362051   -0.007524355   -0.001070317
      4        8           0.017732143    0.007403501   -0.001265497
      5        8           0.009285522    0.006507227   -0.000656571
      6        7          -0.010200367   -0.000363946   -0.002616743
      7        7           0.010115587    0.000923245   -0.003737982
      8        7          -0.001287367    0.005724287   -0.000630567
      9        6           0.006570381    0.001978064   -0.004104439
     10        6           0.000797604   -0.005920435   -0.000818198
     11        6          -0.000893663    0.008377809   -0.009468186
     12        6          -0.004604793   -0.007592666    0.008688174
     13        6          -0.007802472    0.005026741    0.001689651
     14        6           0.003463343   -0.003043929   -0.004665430
     15        6           0.006338170    0.003603410    0.001862510
     16        6          -0.005519242   -0.001373516    0.002941207
     17        6           0.004803070    0.000699701    0.002827901
     18        6          -0.005944712   -0.002919399    0.007823164
     19        6          -0.011122150    0.003675149    0.001452165
     20        6           0.001556756    0.002566192   -0.001501630
     21        6           0.001748533    0.009583355    0.000457871
     22        6           0.003945993   -0.002387935   -0.000216811
     23        6           0.003973916    0.005467877    0.002874086
     24        6          -0.005647980    0.007275907    0.001364389
     25        6          -0.000234032   -0.006203046   -0.001066694
     26        6           0.006164019   -0.006572826   -0.000461793
     27        6          -0.005529299    0.007662369    0.001148995
     28        6          -0.010802979   -0.013578876    0.000267337
     29        6           0.002780087    0.001813977   -0.016285781
     30        1          -0.001346172    0.000115769    0.000504486
     31        1          -0.000232391    0.000831949    0.000932274
     32        1           0.000783540    0.000364540    0.001611119
     33        1          -0.000889473   -0.002544012    0.002529723
     34        1           0.001963587    0.000326065   -0.003103576
     35        1           0.000167567    0.002532929    0.000103872
     36        1           0.001210634   -0.000454366   -0.000123108
     37        1           0.001695770    0.000198684   -0.002701532
     38        1          -0.000839900    0.000407900    0.002435849
     39        1          -0.000669197   -0.000308210    0.000094846
     40        1          -0.001432683   -0.000575885    0.000010954
     41        1          -0.001648614   -0.003138585    0.001515970
     42        1           0.001664165    0.000056042   -0.001285723
     43        1           0.000839538    0.000310655   -0.000641968
     44        1          -0.001141385   -0.000019203   -0.000713805
     45        1          -0.001495868   -0.000851846   -0.001606858
     46        1           0.001493125    0.001077838   -0.000277034
     47        1           0.000283244   -0.000102131   -0.000518954
     48        1           0.001594024    0.002875694    0.000209671
     49        1           0.000448712   -0.003678314   -0.000368161
     50        1           0.002183466   -0.000944507   -0.000623528
     51        1          -0.002735738   -0.001801925    0.000447607
     52        1          -0.000203988    0.000101133    0.000510249
     53        1          -0.011145927   -0.003241123    0.001003040
 -------------------------------------------------------------------
 Cartesian Forces:  Max     0.017732143 RMS     0.004637377

 GradGradGradGradGradGradGradGradGradGradGradGradGradGradGradGradGradGrad
 Berny optimization.
 FormGI is forming the generalized inverse of G from B-inverse, IUseBI=4.
 Internal  Forces:  Max     0.015986997 RMS     0.002590834
 Search for a local minimum.
 Step number   1 out of a maximum of  318
 All quantities printed in internal units (Hartrees-Bohrs-Radians)
 Mixed Optimization -- RFO/linear search
 Second derivative matrix not updated -- first step.
 ITU=  0
     Eigenvalues ---    0.00411   0.00474   0.00520   0.00532   0.00788
     Eigenvalues ---    0.00854   0.01022   0.01110   0.01176   0.01296
     Eigenvalues ---    0.01356   0.01460   0.01489   0.01612   0.01635
     Eigenvalues ---    0.01685   0.01805   0.01809   0.01822   0.01858
     Eigenvalues ---    0.01902   0.01915   0.01965   0.02065   0.02190
     Eigenvalues ---    0.02211   0.02242   0.02308   0.02350   0.02379
     Eigenvalues ---    0.02412   0.02575   0.02779   0.02954   0.03014
     Eigenvalues ---    0.03479   0.03685   0.03818   0.04240   0.04477
     Eigenvalues ---    0.04625   0.04694   0.04883   0.04963   0.05306
     Eigenvalues ---    0.05387   0.05657   0.05932   0.06104   0.06431
     Eigenvalues ---    0.06660   0.07500   0.07770   0.08098   0.08110
     Eigenvalues ---    0.08120   0.08543   0.08658   0.09652   0.09863
     Eigenvalues ---    0.09928   0.10351   0.10490   0.10531   0.11124
     Eigenvalues ---    0.12007   0.12146   0.14028   0.15987   0.15999
     Eigenvalues ---    0.16000   0.16000   0.16000   0.16000   0.16000
     Eigenvalues ---    0.16397   0.16795   0.17277   0.19288   0.20541
     Eigenvalues ---    0.21915   0.23334   0.23551   0.24247   0.24887
     Eigenvalues ---    0.24924   0.24967   0.24977   0.24989   0.24993
     Eigenvalues ---    0.24994   0.24996   0.24999   0.24999   0.25000
     Eigenvalues ---    0.25000   0.25000   0.25442   0.25633   0.27155
     Eigenvalues ---    0.27194   0.27262   0.27475   0.27858   0.30534
     Eigenvalues ---    0.31258   0.32408   0.32558   0.33042   0.33476
     Eigenvalues ---    0.33608   0.33818   0.33990   0.34042   0.34080
     Eigenvalues ---    0.34095   0.34126   0.34168   0.34219   0.34233
     Eigenvalues ---    0.34343   0.34563   0.34665   0.34722   0.34722
     Eigenvalues ---    0.35170   0.35632   0.35664   0.35668   0.35760
     Eigenvalues ---    0.35779   0.35794   0.35860   0.35920   0.35941
     Eigenvalues ---    0.36294   0.39449   0.41189   0.42451   0.43360
     Eigenvalues ---    0.43882   0.43883   0.44631   0.45447   0.47063
     Eigenvalues ---    0.48156   0.48522   0.49738   0.50177   0.50637
     Eigenvalues ---    0.51852   0.84496   0.87932
 RFO step:  Lambda=-8.46704893D-03 EMin= 4.10889262D-03
 Linear search not attempted -- first point.
 Iteration  1 RMS(Cart)=  0.14202699 RMS(Int)=  0.00287278
 Iteration  2 RMS(Cart)=  0.00689065 RMS(Int)=  0.00022556
 Iteration  3 RMS(Cart)=  0.00001217 RMS(Int)=  0.00022549
 Iteration  4 RMS(Cart)=  0.00000000 RMS(Int)=  0.00022549
 Variable       Old X    -DE/DX   Delta X   Delta X   Delta X     New X
                                 (Linear)    (Quad)   (Total)
    R1        2.61387   0.00432   0.00000   0.00875   0.00875   2.62262
    R2        2.65707  -0.00647   0.00000  -0.01423  -0.01423   2.64284
    R3        2.81297  -0.01599   0.00000  -0.04640  -0.04640   2.76657
    R4        2.35578   0.00772   0.00000   0.00904   0.00904   2.36482
    R5        2.59228  -0.00221   0.00000  -0.00430  -0.00430   2.58798
    R6        1.88474  -0.01112   0.00000  -0.02269  -0.02269   1.86205
    R7        2.33901   0.01108   0.00000   0.01248   0.01248   2.35148
    R8        2.82608  -0.00571   0.00000  -0.01902  -0.01869   2.80738
    R9        2.81826  -0.00672   0.00000  -0.02089  -0.02061   2.79765
   R10        2.62950   0.00439   0.00000   0.00917   0.00917   2.63868
   R11        2.77664  -0.00549   0.00000  -0.01414  -0.01412   2.76252
   R12        2.79619  -0.00613   0.00000  -0.01624  -0.01618   2.78001
   R13        1.93295  -0.00343   0.00000  -0.00767  -0.00767   1.92528
   R14        2.77474  -0.00400   0.00000  -0.01088  -0.01088   2.76386
   R15        2.67133   0.00230   0.00000   0.00479   0.00478   2.67611
   R16        2.57064   0.00107   0.00000   0.00228   0.00228   2.57292
   R17        2.94093  -0.00712   0.00000  -0.02563  -0.02585   2.91508
   R18        2.91202  -0.00451   0.00000  -0.01418  -0.01438   2.89764
   R19        2.92237  -0.00379   0.00000  -0.01454  -0.01461   2.90777
   R20        2.06754   0.00138   0.00000   0.00393   0.00393   2.07147
   R21        2.95687  -0.00612   0.00000  -0.02057  -0.02075   2.93612
   R22        2.07259   0.00126   0.00000   0.00362   0.00362   2.07621
   R23        2.07638   0.00149   0.00000   0.00430   0.00430   2.08068
   R24        2.05399   0.00234   0.00000   0.00651   0.00651   2.06050
   R25        2.07195   0.00334   0.00000   0.00955   0.00955   2.08150
   R26        2.06391   0.00242   0.00000   0.00684   0.00684   2.07075
   R27        2.91610  -0.00528   0.00000  -0.01910  -0.01912   2.89698
   R28        2.07347   0.00011   0.00000   0.00032   0.00032   2.07379
   R29        2.07047   0.00256   0.00000   0.00732   0.00732   2.07779
   R30        2.88144  -0.00162   0.00000  -0.00512  -0.00514   2.87630
   R31        2.85091  -0.00074   0.00000  -0.00179  -0.00180   2.84911
   R32        2.04207   0.00246   0.00000   0.00668   0.00668   2.04875
   R33        2.90704  -0.00485   0.00000  -0.01545  -0.01543   2.89161
   R34        2.07170   0.00008   0.00000   0.00023   0.00023   2.07193
   R35        2.07118   0.00135   0.00000   0.00386   0.00386   2.07504
   R36        2.88324  -0.00189   0.00000  -0.00683  -0.00681   2.87643
   R37        2.04604   0.00177   0.00000   0.00484   0.00484   2.05088
   R38        2.04662   0.00039   0.00000   0.00107   0.00107   2.04769
   R39        2.04429   0.00061   0.00000   0.00165   0.00165   2.04594
   R40        2.04610   0.00209   0.00000   0.00573   0.00573   2.05184
   R41        2.08978   0.00149   0.00000   0.00438   0.00438   2.09416
   R42        2.06962   0.00014   0.00000   0.00039   0.00039   2.07001
   R43        2.66341   0.00661   0.00000   0.01483   0.01487   2.67827
   R44        2.66553   0.00903   0.00000   0.02072   0.02076   2.68629
   R45        2.66890   0.00531   0.00000   0.01153   0.01153   2.68043
   R46        2.66470   0.00502   0.00000   0.00992   0.00987   2.67457
   R47        2.64093   0.00538   0.00000   0.01136   0.01132   2.65225
   R48        2.81907   0.00138   0.00000   0.00360   0.00360   2.82268
   R49        2.58542   0.00609   0.00000   0.01203   0.01204   2.59746
   R50        2.58322   0.01154   0.00000   0.02264   0.02265   2.60587
   R51        2.04459   0.00313   0.00000   0.00855   0.00855   2.05314
   R52        2.04405   0.00369   0.00000   0.01006   0.01006   2.05411
   R53        2.75289   0.00490   0.00000   0.01336   0.01337   2.76627
   R54        2.77601   0.00545   0.00000   0.01485   0.01485   2.79086
   R55        2.06938   0.00162   0.00000   0.00463   0.00463   2.07400
   R56        2.06222   0.00327   0.00000   0.00922   0.00922   2.07144
   R57        2.06128   0.00018   0.00000   0.00050   0.00050   2.06178
    A1        1.96898   0.00140   0.00000   0.00543   0.00543   1.97441
    A2        1.86994   0.00658   0.00000   0.03903   0.03903   1.90897
    A3        1.93957  -0.00141   0.00000  -0.00428  -0.00507   1.93450
    A4        2.17243   0.00389   0.00000   0.03215   0.03053   2.20296
    A5        2.09755  -0.00171   0.00000   0.00859   0.00632   2.10386
    A6        2.01386   0.00126   0.00000   0.01551   0.01500   2.02886
    A7        1.96119  -0.00012   0.00000   0.01397   0.01334   1.97453
    A8        1.96996   0.00040   0.00000   0.01564   0.01505   1.98502
    A9        2.14112   0.00003   0.00000   0.00073   0.00075   2.14186
   A10        2.06262  -0.00095   0.00000  -0.00311  -0.00310   2.05952
   A11        2.07649   0.00092   0.00000   0.00282   0.00278   2.07926
   A12        1.78360  -0.00133   0.00000  -0.00668  -0.00678   1.77682
   A13        1.95095   0.00022   0.00000  -0.00091  -0.00092   1.95002
   A14        1.91545   0.00017   0.00000  -0.00407  -0.00414   1.91131
   A15        1.93357   0.00183   0.00000   0.02089   0.02096   1.95453
   A16        1.95647  -0.00021   0.00000  -0.00550  -0.00553   1.95094
   A17        1.92057  -0.00070   0.00000  -0.00398  -0.00397   1.91660
   A18        1.95509   0.00001   0.00000   0.00536   0.00522   1.96030
   A19        2.04068   0.00008   0.00000  -0.00006   0.00004   2.04073
   A20        1.87630  -0.00001   0.00000  -0.00285  -0.00287   1.87344
   A21        1.81276   0.00034   0.00000   0.00182   0.00174   1.81451
   A22        1.88308   0.00028   0.00000   0.00024   0.00039   1.88347
   A23        1.89002  -0.00070   0.00000  -0.00462  -0.00465   1.88536
   A24        1.80623   0.00117   0.00000   0.00330   0.00376   1.80999
   A25        1.91594  -0.00072   0.00000  -0.01240  -0.01244   1.90350
   A26        1.93076   0.00067   0.00000   0.02164   0.02124   1.95200
   A27        1.93269  -0.00019   0.00000  -0.00528  -0.00561   1.92708
   A28        1.96381  -0.00014   0.00000   0.00671   0.00654   1.97034
   A29        1.91214  -0.00071   0.00000  -0.01317  -0.01300   1.89914
   A30        1.81355   0.00090   0.00000   0.00021   0.00064   1.81420
   A31        1.91610  -0.00005   0.00000   0.00518   0.00501   1.92110
   A32        1.94824  -0.00029   0.00000  -0.00189  -0.00223   1.94601
   A33        1.92749   0.00164   0.00000   0.02013   0.01977   1.94727
   A34        1.96400  -0.00172   0.00000  -0.01583  -0.01576   1.94824
   A35        1.89372  -0.00039   0.00000  -0.00664  -0.00647   1.88725
   A36        1.94748  -0.00003   0.00000  -0.00338  -0.00356   1.94391
   A37        1.89902   0.00007   0.00000   0.00323   0.00333   1.90235
   A38        1.90400   0.00092   0.00000   0.00957   0.00953   1.91354
   A39        1.92244   0.00024   0.00000   0.00544   0.00551   1.92794
   A40        1.92721  -0.00104   0.00000  -0.01269  -0.01262   1.91460
   A41        1.86144  -0.00013   0.00000  -0.00183  -0.00188   1.85956
   A42        2.06021   0.00060   0.00000   0.00663   0.00663   2.06684
   A43        2.07016  -0.00008   0.00000  -0.00402  -0.00403   2.06613
   A44        1.99752  -0.00061   0.00000  -0.00413  -0.00419   1.99334
   A45        2.05290   0.00027   0.00000   0.00469   0.00467   2.05757
   A46        2.04750   0.00038   0.00000   0.00040   0.00038   2.04787
   A47        1.91899  -0.00066   0.00000  -0.00383  -0.00398   1.91501
   A48        1.92400   0.00023   0.00000   0.00115   0.00117   1.92517
   A49        1.91596   0.00026   0.00000   0.00268   0.00275   1.91871
   A50        1.91897   0.00035   0.00000   0.00003   0.00013   1.91910
   A51        1.88722   0.00032   0.00000   0.00592   0.00592   1.89314
   A52        1.89820  -0.00050   0.00000  -0.00587  -0.00590   1.89231
   A53        2.06401   0.00034   0.00000   0.00496   0.00496   2.06897
   A54        2.03955   0.00033   0.00000   0.00400   0.00399   2.04355
   A55        2.04022   0.00004   0.00000   0.00132   0.00131   2.04152
   A56        2.07381   0.00041   0.00000   0.00141   0.00140   2.07521
   A57        2.01273  -0.00082   0.00000  -0.00758  -0.00758   2.00515
   A58        2.03842   0.00036   0.00000   0.00352   0.00352   2.04194
   A59        2.03485   0.00045   0.00000   0.00299   0.00299   2.03784
   A60        2.08622   0.00026   0.00000   0.00356   0.00356   2.08979
   A61        2.03877   0.00057   0.00000   0.00309   0.00309   2.04186
   A62        2.01666  -0.00095   0.00000  -0.00787  -0.00787   2.00879
   A63        1.89172   0.00024   0.00000   0.00781   0.00764   1.89936
   A64        1.98688  -0.00107   0.00000  -0.01354  -0.01347   1.97341
   A65        1.88045   0.00042   0.00000   0.00524   0.00522   1.88567
   A66        1.89708   0.00067   0.00000   0.00153   0.00158   1.89866
   A67        1.92532  -0.00011   0.00000   0.00229   0.00230   1.92762
   A68        1.88236  -0.00017   0.00000  -0.00313  -0.00315   1.87922
   A69        2.08390  -0.00404   0.00000  -0.01579  -0.01591   2.06799
   A70        2.15104   0.01027   0.00000   0.03958   0.03945   2.19050
   A71        2.04796  -0.00622   0.00000  -0.02324  -0.02326   2.02470
   A72        2.15049  -0.00087   0.00000  -0.00102  -0.00100   2.14949
   A73        2.05956   0.00014   0.00000  -0.00110  -0.00118   2.05837
   A74        2.07284   0.00072   0.00000   0.00173   0.00167   2.07452
   A75        2.07087  -0.00337   0.00000  -0.01260  -0.01262   2.05825
   A76        2.09450  -0.00003   0.00000   0.00033   0.00031   2.09480
   A77        2.11760   0.00339   0.00000   0.01204   0.01202   2.12962
   A78        2.09006  -0.00105   0.00000  -0.00459  -0.00465   2.08541
   A79        2.15947  -0.00014   0.00000  -0.00220  -0.00221   2.15726
   A80        2.03351   0.00118   0.00000   0.00671   0.00677   2.04028
   A81        2.06791   0.00435   0.00000   0.01624   0.01623   2.08414
   A82        2.08594  -0.00823   0.00000  -0.03242  -0.03244   2.05350
   A83        2.12928   0.00389   0.00000   0.01618   0.01621   2.14549
   A84        2.19229   0.00054   0.00000   0.00353   0.00350   2.19579
   A85        2.03367  -0.00127   0.00000  -0.00772  -0.00771   2.02596
   A86        2.05716   0.00073   0.00000   0.00418   0.00419   2.06135
   A87        2.10333  -0.00077   0.00000  -0.00335  -0.00338   2.09995
   A88        2.05199   0.00092   0.00000   0.00493   0.00495   2.05694
   A89        2.12716  -0.00014   0.00000  -0.00136  -0.00135   2.12580
   A90        2.10407  -0.00397   0.00000  -0.01406  -0.01408   2.08999
   A91        1.98888   0.00159   0.00000   0.00548   0.00548   1.99436
   A92        2.19000   0.00237   0.00000   0.00850   0.00850   2.19850
   A93        2.10050  -0.00108   0.00000  -0.00399  -0.00398   2.09651
   A94        2.21366  -0.00139   0.00000  -0.00518  -0.00517   2.20849
   A95        1.96898   0.00247   0.00000   0.00910   0.00906   1.97805
   A96        2.12707  -0.00622   0.00000  -0.02406  -0.02407   2.10300
   A97        1.98235   0.00657   0.00000   0.02540   0.02540   2.00774
   A98        2.17377  -0.00035   0.00000  -0.00134  -0.00135   2.17242
   A99        1.92778  -0.00298   0.00000  -0.01851  -0.01853   1.90925
   A100       1.91954  -0.00033   0.00000  -0.00217  -0.00221   1.91733
   A101       1.83278   0.00145   0.00000   0.00960   0.00961   1.84238
   A102       1.92435   0.00104   0.00000   0.00435   0.00429   1.92864
   A103       1.92559   0.00068   0.00000   0.00435   0.00437   1.92995
   A104       1.93206   0.00010   0.00000   0.00231   0.00230   1.93436
    D1        1.23655  -0.00013   0.00000  -0.00640  -0.00630   1.23025
    D2       -1.88308   0.00010   0.00000   0.00532   0.00522  -1.87786
    D3        1.04452  -0.00040   0.00000  -0.00833  -0.00826   1.03626
    D4       -1.08348   0.00048   0.00000  -0.00010  -0.00014  -1.08361
    D5        3.12039  -0.00029   0.00000  -0.00716  -0.00718   3.11321
    D6       -0.00110  -0.00007   0.00000  -0.00303  -0.00300  -0.00410
    D7        3.14035   0.00010   0.00000   0.00436   0.00432  -3.13851
    D8        0.38261  -0.00007   0.00000  -0.00129  -0.00141   0.38120
    D9       -1.68105  -0.00014   0.00000   0.00883   0.00883  -1.67222
   D10        2.48986   0.00079   0.00000   0.01943   0.01969   2.50955
   D11       -2.35388  -0.00150   0.00000  -0.09749  -0.09802  -2.45190
   D12        1.86565  -0.00158   0.00000  -0.08736  -0.08778   1.77786
   D13       -0.24663  -0.00065   0.00000  -0.07676  -0.07692  -0.32355
   D14        0.03572   0.00042   0.00000   0.00629   0.00647   0.04218
   D15       -2.02592  -0.00195   0.00000  -0.01970  -0.01941  -2.04533
   D16        2.15664  -0.00123   0.00000  -0.01360  -0.01318   2.14346
   D17        2.79198   0.00327   0.00000   0.10420   0.10340   2.89539
   D18        0.73034   0.00089   0.00000   0.07821   0.07753   0.80787
   D19       -1.37029   0.00161   0.00000   0.08431   0.08376  -1.28653
   D20       -2.59322  -0.00020   0.00000   0.01171   0.01246  -2.58076
   D21        0.57472  -0.00078   0.00000  -0.01335  -0.01287   0.56185
   D22        0.98762  -0.00198   0.00000  -0.09057  -0.09105   0.89658
   D23       -2.12762  -0.00256   0.00000  -0.11562  -0.11637  -2.24399
   D24       -0.93722   0.00118   0.00000   0.03717   0.03735  -0.89986
   D25        1.15170   0.00170   0.00000   0.04396   0.04402   1.19572
   D26       -3.00301   0.00083   0.00000   0.03558   0.03568  -2.96733
   D27        3.05373  -0.00051   0.00000  -0.01465  -0.01465   3.03909
   D28       -1.14054   0.00002   0.00000  -0.00787  -0.00798  -1.14852
   D29        0.98794  -0.00085   0.00000  -0.01625  -0.01632   0.97162
   D30        1.04639  -0.00076   0.00000  -0.03779  -0.03794   1.00845
   D31       -1.06677  -0.00109   0.00000  -0.03647  -0.03656  -1.10333
   D32        3.12979  -0.00051   0.00000  -0.02779  -0.02791   3.10188
   D33       -2.94873   0.00068   0.00000   0.01349   0.01356  -2.93517
   D34        1.22129   0.00035   0.00000   0.01481   0.01493   1.23623
   D35       -0.86533   0.00093   0.00000   0.02350   0.02359  -0.84174
   D36       -2.35792   0.00005   0.00000  -0.00341  -0.00338  -2.36130
   D37       -1.14161  -0.00008   0.00000  -0.00394  -0.00396  -1.14556
   D38        1.39441  -0.00044   0.00000  -0.01621  -0.01618   1.37823
   D39        0.70013   0.00021   0.00000   0.00296   0.00295   0.70308
   D40        1.91644   0.00008   0.00000   0.00242   0.00238   1.91882
   D41       -1.83073  -0.00028   0.00000  -0.00985  -0.00984  -1.84057
   D42       -0.21969  -0.00072   0.00000  -0.02832  -0.02825  -0.24794
   D43        2.94846  -0.00035   0.00000  -0.01113  -0.01113   2.93733
   D44        3.00608  -0.00079   0.00000  -0.03446  -0.03438   2.97170
   D45       -0.10895  -0.00042   0.00000  -0.01727  -0.01727  -0.12622
   D46       -2.99805   0.00022   0.00000   0.00931   0.00931  -2.98874
   D47        0.13102   0.00022   0.00000   0.00784   0.00785   0.13887
   D48        0.06317   0.00033   0.00000   0.01534   0.01533   0.07849
   D49       -3.09094   0.00032   0.00000   0.01388   0.01386  -3.07708
   D50        2.88317   0.00043   0.00000   0.01164   0.01163   2.89480
   D51        0.66528   0.00009   0.00000   0.00715   0.00713   0.67241
   D52       -1.33825   0.00060   0.00000   0.01143   0.01141  -1.32684
   D53        0.81478  -0.00106   0.00000  -0.00860  -0.00862   0.80616
   D54       -1.40311  -0.00141   0.00000  -0.01309  -0.01312  -1.41624
   D55        2.87655  -0.00089   0.00000  -0.00882  -0.00884   2.86771
   D56       -1.32116  -0.00044   0.00000  -0.00007  -0.00009  -1.32124
   D57        2.74414  -0.00078   0.00000  -0.00456  -0.00459   2.73954
   D58        0.74061  -0.00027   0.00000  -0.00029  -0.00031   0.74030
   D59       -0.63713  -0.00030   0.00000  -0.00413  -0.00421  -0.64134
   D60        1.41486  -0.00059   0.00000  -0.01926  -0.01925   1.39561
   D61       -2.72183  -0.00176   0.00000  -0.03546  -0.03558  -2.75742
   D62        1.44354   0.00006   0.00000   0.00071   0.00058   1.44412
   D63       -2.78766  -0.00022   0.00000  -0.01442  -0.01446  -2.80212
   D64       -0.64116  -0.00139   0.00000  -0.03062  -0.03080  -0.67196
   D65       -2.68683   0.00035   0.00000   0.00695   0.00688  -2.67994
   D66       -0.63484   0.00006   0.00000  -0.00818  -0.00816  -0.64299
   D67        1.51166  -0.00111   0.00000  -0.02438  -0.02449   1.48717
   D68       -0.85997  -0.00031   0.00000  -0.02161  -0.02157  -0.88154
   D69       -2.98466  -0.00063   0.00000  -0.02844  -0.02842  -3.01308
   D70        1.27412  -0.00102   0.00000  -0.03328  -0.03332   1.24080
   D71       -2.83678   0.00009   0.00000  -0.02539  -0.02532  -2.86210
   D72        1.32172  -0.00023   0.00000  -0.03222  -0.03217   1.28955
   D73       -0.70269  -0.00062   0.00000  -0.03706  -0.03707  -0.73975
   D74        1.27303  -0.00043   0.00000  -0.03022  -0.03022   1.24281
   D75       -0.85166  -0.00076   0.00000  -0.03705  -0.03707  -0.88873
   D76       -2.87606  -0.00114   0.00000  -0.04189  -0.04196  -2.91803
   D77       -2.59977  -0.00127   0.00000  -0.01880  -0.01883  -2.61860
   D78       -0.54601  -0.00005   0.00000  -0.00307  -0.00295  -0.54896
   D79        1.57304  -0.00057   0.00000  -0.00814  -0.00822   1.56482
   D80       -0.43649  -0.00094   0.00000  -0.01050  -0.01069  -0.44718
   D81        1.61727   0.00027   0.00000   0.00524   0.00518   1.62245
   D82       -2.54686  -0.00025   0.00000   0.00016  -0.00009  -2.54695
   D83        1.56209  -0.00076   0.00000  -0.01131  -0.01138   1.55071
   D84       -2.66733   0.00046   0.00000   0.00443   0.00449  -2.66284
   D85       -0.54827  -0.00006   0.00000  -0.00065  -0.00078  -0.54906
   D86        0.98297   0.00007   0.00000   0.01864   0.01853   1.00150
   D87        3.10139   0.00023   0.00000   0.01692   0.01685   3.11824
   D88       -1.09110  -0.00009   0.00000   0.01207   0.01203  -1.07907
   D89        3.09406   0.00030   0.00000   0.02419   0.02412   3.11818
   D90       -1.07070   0.00046   0.00000   0.02246   0.02244  -1.04826
   D91        1.01999   0.00015   0.00000   0.01762   0.01761   1.03761
   D92       -1.13772  -0.00035   0.00000   0.01755   0.01750  -1.12022
   D93        0.98070  -0.00019   0.00000   0.01583   0.01581   0.99652
   D94        3.07139  -0.00051   0.00000   0.01098   0.01099   3.08238
   D95        0.04545  -0.00050   0.00000  -0.00809  -0.00812   0.03733
   D96       -2.48062   0.00002   0.00000  -0.00770  -0.00772  -2.48834
   D97        2.55698  -0.00029   0.00000   0.00209   0.00210   2.55909
   D98        0.03091   0.00023   0.00000   0.00248   0.00250   0.03341
   D99        2.47542  -0.00078   0.00000  -0.01191  -0.01191   2.46351
   D100      -0.01107  -0.00021   0.00000  -0.00694  -0.00693  -0.01800
   D101      -0.04350  -0.00007   0.00000   0.00231   0.00231  -0.04119
   D102      -2.52998   0.00050   0.00000   0.00728   0.00728  -2.52270
   D103      -1.03963   0.00044   0.00000   0.01067   0.01065  -1.02898
   D104       1.12812  -0.00030   0.00000  -0.00007  -0.00008   1.12804
   D105      -3.09459  -0.00016   0.00000  -0.00161  -0.00161  -3.09620
   D106       3.12212   0.00035   0.00000   0.01171   0.01169   3.13381
   D107      -0.99331  -0.00039   0.00000   0.00097   0.00096  -0.99235
   D108       1.06716  -0.00025   0.00000  -0.00057  -0.00057   1.06659
   D109       1.05200   0.00056   0.00000   0.01528   0.01524   1.06724
   D110      -3.06343  -0.00017   0.00000   0.00454   0.00451  -3.05892
   D111      -1.00296  -0.00003   0.00000   0.00299   0.00297  -0.99998
   D112      -2.54292   0.00080   0.00000   0.00862   0.00862  -2.53430
[...]
 ! D134  D(27,22,25,23)        179.0237         -DE/DX =    0.0                 !
 ! D135  D(27,22,25,49)         -3.4033         -DE/DX =    0.0                 !
 ! D136  D(20,22,27,3)        -176.465          -DE/DX =    0.0                 !
 ! D137  D(20,22,27,26)          3.5278         -DE/DX =    0.0                 !
 ! D138  D(25,22,27,3)           4.8348         -DE/DX =    0.0                 !
 ! D139  D(25,22,27,26)       -175.1724         -DE/DX =    0.0                 !
 ! D140  D(1,23,25,22)         174.74           -DE/DX =    0.0                 !
 ! D141  D(1,23,25,49)          -2.7523         -DE/DX =    0.0                 !
 ! D142  D(19,23,25,22)         -4.0053         -DE/DX =    0.0                 !
 ! D143  D(19,23,25,49)        178.5023         -DE/DX =    0.0                 !
 ! D144  D(8,24,26,27)           3.8518         -DE/DX =    0.0                 !
 ! D145  D(8,24,26,28)        -178.7006         -DE/DX =    0.0                 !
 ! D146  D(48,24,26,27)       -175.1082         -DE/DX =    0.0                 !
 ! D147  D(48,24,26,28)          2.3394         -DE/DX =    0.0                 !
 ! D148  D(24,26,27,3)         172.3282         -DE/DX =    0.0                 !
 ! D149  D(24,26,27,22)         -7.6641         -DE/DX =    0.0                 !
 ! D150  D(28,26,27,3)          -4.8104         -DE/DX =    0.0                 !
 ! D151  D(28,26,27,22)        175.1973         -DE/DX =    0.0                 !
 ! D152  D(24,26,28,4)         171.7832         -DE/DX =    0.0                 !
 ! D153  D(24,26,28,5)          -6.8172         -DE/DX =    0.0                 !
 ! D154  D(27,26,28,4)         -10.9472         -DE/DX =    0.0                 !
 ! D155  D(27,26,28,5)         170.4524         -DE/DX =    0.0                 !
 --------------------------------------------------------------------------------
 GradGradGradGradGradGradGradGradGradGradGradGradGradGradGradGradGradGrad

 Stoichiometry    C21H24FN3O4
 Framework group  C1[X(C21H24FN3O4)]
 Deg. of freedom   153
 Full point group                 C1      NOp   1
 Largest Abelian subgroup         C1      NOp   1
 Largest concise Abelian subgroup C1      NOp   1
                         Standard orientation:                         
 ---------------------------------------------------------------------
 Center     Atomic      Atomic             Coordinates (Angstroms)
 Number     Number       Type             X           Y           Z
 ---------------------------------------------------------------------
      1          9           0       -1.366934   -2.892784   -0.133942
      2          8           0       -0.288288    1.704728    0.884796
      3          8           0        3.589972   -2.739724   -0.516678
      4          8           0        6.174054   -1.821243   -0.037766
      5          8           0        6.465088    0.432135   -0.112238
      6          7           0       -2.246628   -0.290627    0.524767
      7          7           0       -5.428716    1.355434   -0.290809
      8          7           0        2.428563    1.193764    0.096411
      9          6           0       -4.555296   -0.719511    0.776263
     10          6           0       -4.358658    0.788739    0.511900
     11          6           0       -3.180129   -1.149561    1.288705
     12          6           0       -2.927204    0.867231   -0.079704
     13          6           0       -4.936480   -1.470384   -0.508821
     14          6           0        2.083274    2.609859   -0.003958
     15          6           0       -6.129871   -0.802323   -1.201492
     16          6           0        2.811547    3.458916   -1.032293
     17          6           0        1.353647    3.078805   -1.239053
     18          6           0       -5.791652    0.655592   -1.524087
     19          6           0       -0.904966   -0.572051    0.327261
     20          6           0        1.445808    0.176180    0.127779
     21          6           0        0.084840    0.439372    0.423194
     22          6           0        1.859878   -1.158227   -0.093640
     23          6           0       -0.432164   -1.874149    0.026949
     24          6           0        3.743961    0.844872    0.041396
     25          6           0        0.896732   -2.180125   -0.138387
     26          6           0        4.223843   -0.440755   -0.085255
     27          6           0        3.286268   -1.552006   -0.256948
     28          6           0        5.692063   -0.546378   -0.090041
     29          6           0       -0.660734    1.732285    2.290078
     30          1           0       -5.337829   -0.864364    1.530707
     31          1           0       -4.351150    1.303563    1.484613
     32          1           0       -3.075909   -0.955416    2.370392
     33          1           0       -2.987296   -2.211501    1.112265
     34          1           0       -2.947704    0.773021   -1.177608
     35          1           0       -2.429516    1.813046    0.164171
     36          1           0       -5.160261   -2.516467   -0.264620
     37          1           0       -4.072076   -1.488793   -1.192147
     38          1           0        1.808807    3.071404    0.937229
     39          1           0       -6.391532   -1.337794   -2.121906
     40          1           0       -7.004572   -0.820634   -0.536628
     41          1           0       -5.436477    2.368217   -0.344549
     42          1           0        3.545839    2.980891   -1.673340
     43          1           0        3.055882    4.477029   -0.752270
     44          1           0        0.577858    3.822548   -1.104964
     45          1           0        1.140277    2.331711   -1.997837
     46          1           0       -4.985000    0.669164   -2.286206
     47          1           0       -6.659901    1.160097   -1.962445
     48          1           0        4.459614    1.661388    0.086629
     49          1           0        1.227298   -3.194015   -0.344584
     50          1           0        0.162699    1.351837    2.909168
     51          1           0       -1.562955    1.130446    2.468864
     52          1           0       -0.857407    2.778398    2.531063
     53          1           0        7.156342   -1.804165   -0.047101
 ---------------------------------------------------------------------
 Rotational constants (GHZ):      0.3555011      0.0875613      0.0757221

 **********************************************************************

            Population analysis using the SCF density.

 **********************************************************************

 Orbital symmetries:
       Occupied  (A) (A) (A) (A) (A) (A) (A) (A) (A) (A) (A) (A)
                 (A) (A) (A) (A) (A) (A) (A) (A) (A) (A) (A) (A)
                 (A) (A) (A) (A) (A) (A) (A) (A) (A) (A) (A) (A)
                 (A) (A) (A) (A) (A) (A) (A) (A) (A) (A) (A) (A)
                 (A) (A) (A) (A) (A) (A) (A) (A) (A) (A) (A) (A)
                 (A) (A) (A) (A) (A) (A) (A) (A) (A) (A) (A) (A)
                 (A) (A) (A) (A) (A) (A) (A) (A) (A) (A) (A) (A)
                 (A) (A) (A) (A) (A) (A) (A) (A) (A) (A) (A) (A)
                 (A) (A) (A) (A) (A) (A) (A) (A) (A) (A)
       Virtual   (A) (A) (A) (A) (A) (A) (A) (A) (A) (A) (A) (A)
                 (A) (A) (A) (A) (A) (A) (A) (A) (A) (A) (A) (A)
                 (A) (A) (A) (A) (A) (A) (A) (A) (A) (A) (A) (A)
                 (A) (A) (A) (A) (A) (A) (A) (A) (A) (A) (A) (A)
                 (A) (A) (A) (A) (A) (A) (A) (A) (A) (A) (A) (A)
                 (A) (A) (A) (A) (A) (A) (A) (A) (A) (A) (A) (A)
                 (A) (A) (A) (A) (A) (A) (A) (A) (A) (A) (A) (A)
                 (A) (A) (A) (A) (A) (A) (A) (A) (A) (A) (A) (A)
                 (A) (A) (A) (A) (A) (A) (A) (A) (A) (A) (A) (A)
                 (A) (A) (A) (A) (A) (A) (A) (A) (A) (A) (A) (A)
                 (A) (A) (A) (A) (A) (A) (A) (A) (A) (A) (A) (A)
                 (A) (A) (A) (A) (A) (A) (A) (A) (A) (A) (A) (A)
                 (A) (A) (A) (A) (A) (A) (A) (A) (A) (A) (A) (A)
                 (A) (A) (A) (A) (A) (A) (A) (A) (A) (A) (A) (A)
                 (A) (A) (A) (A) (A) (A) (A) (A) (A) (A) (A) (A)
                 (A) (A) (A) (A) (A) (A) (A) (A) (A) (A) (A) (A)
                 (A) (A) (A) (A) (A) (A) (A) (A) (A) (A) (A)
 The electronic state is 1-A.
 Alpha  occ. eigenvalues --  -24.80105 -19.25861 -19.25830 -19.21150 -19.18721
 Alpha  occ. eigenvalues --  -14.48435 -14.42235 -14.38597 -10.40045 -10.35186
 Alpha  occ. eigenvalues --  -10.34135 -10.33621 -10.33321 -10.33099 -10.32671
 Alpha  occ. eigenvalues --  -10.31795 -10.31747 -10.29111 -10.28527 -10.28051
 Alpha  occ. eigenvalues --  -10.27835 -10.27577 -10.27380 -10.27295 -10.27159
 Alpha  occ. eigenvalues --  -10.26964 -10.25827 -10.24361 -10.24208  -1.25281
 Alpha  occ. eigenvalues --   -1.13171  -1.09818  -1.04295  -1.03906  -1.02623
 Alpha  occ. eigenvalues --   -0.97772  -0.92841  -0.90169  -0.88237  -0.82951
 Alpha  occ. eigenvalues --   -0.82471  -0.79746  -0.78707  -0.76877  -0.74294
 Alpha  occ. eigenvalues --   -0.72593  -0.70599  -0.68699  -0.66855  -0.65810
 Alpha  occ. eigenvalues --   -0.63834  -0.63018  -0.62732  -0.61520  -0.60938
 Alpha  occ. eigenvalues --   -0.57651  -0.56893  -0.56299  -0.55951  -0.54103
 Alpha  occ. eigenvalues --   -0.53237  -0.52628  -0.52054  -0.51450  -0.50078
 Alpha  occ. eigenvalues --   -0.49623  -0.48950  -0.48063  -0.47800  -0.47609
 Alpha  occ. eigenvalues --   -0.46830  -0.46667  -0.46462  -0.45477  -0.44783
 Alpha  occ. eigenvalues --   -0.44367  -0.43724  -0.43400  -0.43206  -0.42463
 Alpha  occ. eigenvalues --   -0.41694  -0.41268  -0.40493  -0.40110  -0.39702
 Alpha  occ. eigenvalues --   -0.39519  -0.39191  -0.38799  -0.38330  -0.37471
 Alpha  occ. eigenvalues --   -0.36346  -0.36018  -0.34088  -0.33891  -0.33216
 Alpha  occ. eigenvalues --   -0.33036  -0.32295  -0.32238  -0.31004  -0.29822
 Alpha  occ. eigenvalues --   -0.28693  -0.27736  -0.24474  -0.23894  -0.22493
 Alpha  occ. eigenvalues --   -0.22305
 Alpha virt. eigenvalues --   -0.05459  -0.04542  -0.00385   0.02565   0.06461
 Alpha virt. eigenvalues --    0.08520   0.08993   0.09121   0.10064   0.10436
 Alpha virt. eigenvalues --    0.10546   0.11001   0.11725   0.12466   0.12877
 Alpha virt. eigenvalues --    0.13023   0.13590   0.13788   0.14458   0.15281
 Alpha virt. eigenvalues --    0.15403   0.15777   0.16194   0.16929   0.17217
 Alpha virt. eigenvalues --    0.17607   0.18336   0.18483   0.18928   0.19032
 Alpha virt. eigenvalues --    0.19160   0.20147   0.20879   0.21149   0.21399
 Alpha virt. eigenvalues --    0.21886   0.22091   0.22463   0.22822   0.23245
 Alpha virt. eigenvalues --    0.23629   0.24073   0.24713   0.25103   0.25202
 Alpha virt. eigenvalues --    0.25437   0.26164   0.26388   0.26834   0.27228
 Alpha virt. eigenvalues --    0.27744   0.27905   0.28294   0.28669   0.29444
 Alpha virt. eigenvalues --    0.29707   0.29864   0.30811   0.31199   0.31717
 Alpha virt. eigenvalues --    0.31914   0.32533   0.32633   0.32864   0.33943
 Alpha virt. eigenvalues --    0.34109   0.34632   0.35050   0.35348   0.35411
 Alpha virt. eigenvalues --    0.35596   0.36271   0.36486   0.37002   0.37665
 Alpha virt. eigenvalues --    0.38009   0.38800   0.39807   0.40312   0.40651
 Alpha virt. eigenvalues --    0.41397   0.42158   0.42480   0.43327   0.43645
 Alpha virt. eigenvalues --    0.44017   0.44734   0.44796   0.45575   0.45776
 Alpha virt. eigenvalues --    0.46219   0.47270   0.47563   0.47989   0.48038
 Alpha virt. eigenvalues --    0.48571   0.49574   0.49770   0.50417   0.51155
 Alpha virt. eigenvalues --    0.51746   0.52185   0.52776   0.54235   0.54308
 Alpha virt. eigenvalues --    0.54689   0.55468   0.56007   0.56886   0.57644
 Alpha virt. eigenvalues --    0.58422   0.59062   0.59552   0.60241   0.61616
 Alpha virt. eigenvalues --    0.63197   0.65483   0.65834   0.66801   0.67986
 Alpha virt. eigenvalues --    0.68476   0.69751   0.70659   0.71944   0.73193
 Alpha virt. eigenvalues --    0.73927   0.74295   0.76416   0.79021   0.79864
 Alpha virt. eigenvalues --    0.82715   0.83430   0.83913   0.84823   0.85686
 Alpha virt. eigenvalues --    0.86607   0.88368   0.89306   0.89898   0.91362
 Alpha virt. eigenvalues --    0.91988   0.93812   0.94387   0.95051   0.96477
 Alpha virt. eigenvalues --    0.98161   1.00138   1.01173   1.02358   1.03202
 Alpha virt. eigenvalues --    1.03810   1.04712   1.05540   1.05719   1.06020
 Alpha virt. eigenvalues --    1.06896   1.07792   1.09420   1.10967   1.11071
 Alpha virt. eigenvalues --    1.11897   1.12868   1.13382   1.13723   1.14073
 Alpha virt. eigenvalues --    1.14915   1.16234   1.18799   1.19195   1.19848
 Alpha virt. eigenvalues --    1.20426   1.22112   1.23036   1.24424   1.24645
 Alpha virt. eigenvalues --    1.26186   1.26416   1.28031   1.28343   1.30520
 Alpha virt. eigenvalues --    1.31901   1.33271   1.37509   1.39989   1.42664
 Alpha virt. eigenvalues --    1.44950   1.48988   1.49926   1.50783   1.54742
 Alpha virt. eigenvalues --    1.55440   1.58368   1.60964   1.64842   1.68022
 Alpha virt. eigenvalues --    1.79497   1.80989   1.84523   1.90614   1.96998
 Alpha virt. eigenvalues --    2.00678   2.08826   2.24537
          Condensed to atoms (all electrons):
 Mulliken charges:
               1
     1  F   -0.260413
     2  O   -0.381772
     3  O   -0.286471
     4  O   -0.454252
     5  O   -0.352438
     6  N   -0.269273
     7  N   -0.397547
     8  N   -0.229858
     9  C   -0.096626
    10  C   -0.150713
    11  C   -0.454676
    12  C   -0.421119
    13  C   -0.439887
    14  C   -0.060003
    15  C   -0.360743
    16  C   -0.522686
    17  C   -0.464906
    18  C   -0.390356
    19  C    0.244712
    20  C    0.199576
    21  C    0.186427
    22  C    0.229206
    23  C    0.262194
    24  C   -0.287682
    25  C   -0.644010
    26  C    0.093660
    27  C    0.129303
    28  C    0.198115
    29  C   -0.501993
    30  H    0.246123
    31  H    0.232961
    32  H    0.219852
    33  H    0.257142
    34  H    0.232205
    35  H    0.246892
    36  H    0.222010
    37  H    0.210771
    38  H    0.260986
    39  H    0.193721
    40  H    0.200730
    41  H    0.286906
    42  H    0.243795
    43  H    0.249931
    44  H    0.260085
    45  H    0.236269
    46  H    0.173606
    47  H    0.210550
    48  H    0.294830
    49  H    0.300536
    50  H    0.227348
    51  H    0.235479
    52  H    0.234859
    53  H    0.406647
 Sum of Mulliken charges =   0.00000
 Mulliken charges with hydrogens summed into heavy atoms:
               1
     1  F   -0.260413
     2  O   -0.381772
     3  O   -0.286471
     4  O   -0.047605
     5  O   -0.352438
     6  N   -0.269273
     7  N   -0.110641
     8  N   -0.229858
     9  C    0.149497
    10  C    0.082247
    11  C    0.022317
    12  C    0.057978
    13  C   -0.007106
    14  C    0.200983
    15  C    0.033708
    16  C   -0.028959
    17  C    0.031447
    18  C   -0.006200
    19  C    0.244712
    20  C    0.199576
    21  C    0.186427
    22  C    0.229206
    23  C    0.262194
    24  C    0.007148
    25  C   -0.343474
    26  C    0.093660
    27  C    0.129303
    28  C    0.198115
    29  C    0.195693
 Electronic spatial extent (au):  <R**2>=          13798.3901
 Charge=              0.0000 electrons
 Dipole moment (field-independent basis, Debye):
    X=             -5.8001    Y=              6.4627    Z=              1.9630  Tot=              8.9028
 Quadrupole moment (field-independent basis, Debye-Ang):
   XX=           -183.2688   YY=           -170.9134   ZZ=           -160.3694
   XY=              6.7293   XZ=              3.4866   YZ=             -1.2456
 Traceless Quadrupole moment (field-independent basis, Debye-Ang):
   XX=            -11.7516   YY=              0.6038   ZZ=             11.1478
   XY=              6.7293   XZ=              3.4866   YZ=             -1.2456
 Octapole moment (field-independent basis, Debye-Ang**2):
  XXX=            -86.3398  YYY=             82.7608  ZZZ=             15.9224  XYY=            -38.9136
  XXY=            -22.2204  XXZ=            -12.3246  XZZ=            -12.9220  YZZ=              7.2701
  YYZ=             15.9849  XYZ=             -2.1752
 Hexadecapole moment (field-independent basis, Debye-Ang**3):
 XXXX=         -14167.8381 YYYY=          -2976.2732 ZZZZ=           -865.8838 XXXY=           -521.0568
 XXXZ=            218.3310 YYYX=            116.1041 YYYZ=             12.1134 ZZZX=            -10.0336
 ZZZY=             46.7367 XXYY=          -2822.9843 XXZZ=          -2403.7985 YYZZ=           -645.5882
 XXYZ=            -78.3882 YYXZ=             23.6044 ZZXY=            -10.7488
 N-N= 2.874937933208D+03 E-N=-8.968986882135D+03  KE= 1.371762931603D+03
 1\1\GINC-NODE043\FOpt\RM06\LANL2DZ\C21H24F1N3O4\SUPERCOMPUTO1\21-Jul-2
 020\0\\#opt M06/lanl2dz integral=ultrafine geom=connectivity\\Title Ca
 rd Required\\0,1\F,-1.3244945848,-2.8862361831,0.1098048856\O,-0.24128
 02762,1.7815091864,0.7239878794\O,3.6428499095,-2.7946186571,-0.130864
 8913\O,6.2182418011,-1.8478681389,0.3397384406\O,6.5291798776,0.386938
 5473,0.0624024274\N,-2.2033703116,-0.229174095,0.4926570387\N,-5.34594
 81288,1.3483137472,-0.5732243023\N,2.4942944227,1.1849030813,0.0723709
 011\C,-4.5219610631,-0.62092467,0.7113159787\C,-4.3054410324,0.8546315
 447,0.3122872762\C,-3.1665423366,-1.0074957604,1.3046353926\C,-2.85599
 04995,0.8698059325,-0.2391462828\C,-4.8695779317,-1.4878743304,-0.5085
 657594\C,2.1634157414,2.5868929025,-0.1716928104\C,-6.0359222348,-0.88
 22783281,-1.2979800373\C,2.9294688704,3.3314381172,-1.2522338648\C,1.4
 756208135,2.9407489427,-1.4676291578\C,-5.6765084168,0.5369672867,-1.7
 457959707\C,-0.8585578417,-0.5346488193,0.3644853109\C,1.5030455699,0.
 1797201993,0.1688078952\C,0.1357975441,0.4763849071,0.3955206496\C,1.9
 131549741,-1.1716713304,0.0871209062\C,-0.3870777606,-1.8616163235,0.2
 030818011\C,3.8079673813,0.8258468973,0.091523301\C,0.9437987687,-2.18
 84321095,0.1088369324\C,4.2813430303,-0.4683626734,0.1015930781\C,3.34
 07223311,-1.5861896266,0.0062062294\C,5.7481445866,-0.5812563998,0.152
 5740275\C,-0.6562979048,1.9434746465,2.1081188953\H,-5.3283173996,-0.6
 900099784,1.4512774635\H,-4.3236226663,1.4589523889,1.2319269035\H,-3.
 0939213271,-0.7126080731,2.3659405776\H,-2.9767846481,-2.0822952175,1.
 2351340833\H,-2.8436487144,0.6724586286,-1.3233928937\H,-2.3585488761,
 1.8319379835,-0.070065888\H,-5.1089651733,-2.5051029695,-0.1739905698\
 H,-3.9848540041,-1.5750118097,-1.1598247104\H,1.863943869,3.1365974036
 ,0.7128008575\H,-6.2735292942,-1.5009532653,-2.1715602245\H,-6.9306639
 972,-0.8333889387,-0.6619534749\H,-5.3440747538,2.3515240957,-0.722362
 8294\H,3.6792279494,2.7913811153,-1.8221763751\H,3.1731486323,4.370214
 9486,-1.0618975359\H,0.7019843857,3.6976734042,-1.4284716673\H,1.27966
 9053,2.1264198375,-2.1589324571\H,-4.8468458982,0.4745155218,-2.480273
 1007\H,-6.526940637,1.0021361482,-2.2566022397\H,4.5283194275,1.639421
 2853,0.0819232368\H,1.2725094874,-3.2188907067,0.0094939366\H,0.144792
 2116,1.6190939031,2.7856790125\H,-1.5682820733,1.3656929794,2.31458799
 2\H,-0.8519914888,3.0086309937,2.2432188317\H,7.2004596368,-1.83662717
 16,0.3594759013\\Version=ES64L-G09RevD.01\State=1-A\HF=-1378.5729856\R
 MSD=5.860e-09\RMSF=4.540e-06\Dipole=-2.2843435,2.6154821,0.4577538\Qua
 drupole=-8.799693,0.2925869,8.5071062,5.2734659,1.5709297,-0.0187045\P
 G=C01 [X(C21H24F1N3O4)]\\@


 WHEN YOU REACH FOR THE STARS, YOU MAY NOT QUITE GET ONE,
 BUT YOU WON'T COME UP WITH A HANDFUL OF MUD, EITHER.

                                         -- LEO BURNETT (AD AGENCY HEAD)
 Job cpu time:       0 days  9 hours 25 minutes  1.8 seconds.
 File lengths (MBytes):  RWF=     63 Int=      0 D2E=      0 Chk=     10 Scr=      1
 Normal termination of Gaussian 09 at Tue Jul 21 16:51:22 2020.
