 Entering Gaussian System, Link 0=g09
 Input=ofloxacina.gjf
 Output=ofloxacina.log
 Initial command:
 /usr/local/cluster_programs/g09/l1.exe "/tmp/scratch/63949.prometeo/Gau-18370.inp" -scrdir="/tmp/scratch/63949.prometeo/"
 Entering Link 1 = /usr/local/cluster_programs/g09/l1.exe PID=     18371.
  
 Copyright (c) 1988,1990,1992,1993,1995,1998,2003,2009,2013,
            Gaussian, Inc.  All Rights Reserved.
  
 This is part of the Gaussian(R) 09 program.  It is based on
 the Gaussian(R) 03 system (copyright 2003, Gaussian, Inc.),
 the Gaussian(R) 98 system (copyright 1998, Gaussian, Inc.),
 the Gaussian(R) 94 system (copyright 1995, Gaussian, Inc.),
 the Gaussian 92(TM) system (copyright 1992, Gaussian, Inc.),
 the Gaussian 90(TM) system (copyright 1990, Gaussian, Inc.),
 the Gaussian 88(TM) system (copyright 1988, Gaussian, Inc.),
 the Gaussian 86(TM) system (copyright 1986, Carnegie Mellon
 University), and the Gaussian 82(TM) system (copyright 1983,
 Carnegie Mellon University). Gaussian is a federally registered
 trademark of Gaussian, Inc.
  
 This software contains proprietary and confidential information,
 including trade secrets, belonging to Gaussian, Inc.
  
 This software is provided under written license and may be
 used, copied, transmitted, or stored only in accord with that
 written license.
  
 The following legend is applicable only to US Government
 contracts under FAR:
  
                    RESTRICTED RIGHTS LEGEND
  
 Use, reproduction and disclosure by the US Government is
 subject to restrictions as set forth in subparagraphs (a)
 and (c) of the Commercial Computer Software - Restricted
 Rights clause in FAR 52.227-19.
  
 Gaussian, Inc.
 340 Quinnipiac St., Bldg. 40, Wallingford CT 06492
  
  
 ---------------------------------------------------------------
 Warning -- This program may not be used in any manner that
 competes with the business of Gaussian, Inc. or will provide
 assistance to any competitor of Gaussian, Inc.  The licensee
 of this program is prohibited from giving any competitor of
 Gaussian, Inc. access to this program.  By using this program,
 the user acknowledges that Gaussian, Inc. is engaged in the
 business of creating and licensing software in the field of
 computational chemistry and represents and warrants to the
 licensee that it is not a competitor of Gaussian, Inc. and that
 it will not use this program in any manner prohibited above.
 ---------------------------------------------------------------
  

 Cite this work as:
 Gaussian 09, Revision D.01,
 M. J. Frisch, G. W. Trucks, H. B. Schlegel, G. E. Scuseria, 
 M. A. Robb, J. R. Cheeseman, G. Scalmani, V. Barone, B. Mennucci, 
 G. A. Petersson, H. Nakatsuji, M. Caricato, X. Li, H. P. Hratchian, 
 A. F. Izmaylov, J. Bloino, G. Zheng, J. L. Sonnenberg, M. Hada, 
 M. Ehara, K. Toyota, R. Fukuda, J. Hasegawa, M. Ishida, T. Nakajima, 
 Y. Honda, O. Kitao, H. Nakai, T. Vreven, J. A. Montgomery, Jr., 
 J. E. Peralta, F. Ogliaro, M. Bearpark, J. J. Heyd, E. Brothers, 
 K. N. Kudin, V. N. Staroverov, T. Keith, R. Kobayashi, J. Normand, 
 K. Raghavachari, A. Rendell, J. C. Burant, S. S. Iyengar, J. Tomasi, 
 M. Cossi, N. Rega, J. M. Millam, M. Klene, J. E. Knox, J. B. Cross, 
 V. Bakken, C. Adamo, J. Jaramillo, R. Gomperts, R. E. Stratmann, 
 O. Yazyev, A. J. Austin, R. Cammi, C. Pomelli, J. W. Ochterski, 
 R. L. Martin, K. Morokuma, V. G. Zakrzewski, G. A. Voth, 
 P. Salvador, J. J. Dannenberg, S. Dapprich, A. D. Daniels, 
 O. Farkas, J. B. Foresman, J. V. Ortiz, J. Cioslowski, 
 and D. J. Fox, Gaussian, Inc., Wallingford CT, 2013.
 
 ******************************************
 Gaussian 09:  ES64L-G09RevD.01 24-Apr-2013
                 6-Jul-2020 
 ******************************************
 %nprocshared=20
 Will use up to   20 processors via shared memory.
 -----------------------------------
 # opt b3lyp/3-21g geom=connectivity
 -----------------------------------
 1/14=-1,18=20,19=15,26=3,38=1,57=2/1,3;
 2/9=110,12=2,17=6,18=5,40=1/2;
 3/5=5,11=2,16=1,25=1,30=1,71=1,74=-5/1,2,3;
 4//1;
 5/5=2,38=5/2;
 6/7=2,8=2,9=2,10=2,28=1/1;
 7//1,2,3,16;
 1/14=-1,18=20,19=15,26=3/3(2);
 2/9=110/2;
 99//99;
 2/9=110/2;
 3/5=5,11=2,16=1,25=1,30=1,71=1,74=-5/1,2,3;
 4/5=5,16=3,69=1/1;
 5/5=2,38=5/2;
 7//1,2,3,16;
 1/14=-1,18=20,19=15,26=3/3(-5);
 2/9=110/2;
 6/7=2,8=2,9=2,10=2,19=2,28=1/1;
 99/9=1/99;
 -------------------
 Title Card Required
 -------------------
 Symbolic Z-matrix:
 Charge =  0 Multiplicity = 1
 F                     5.75455   10.6547   6.25472 
 H                     9.42822   6.22361   5.77058 
 H                     8.94259   7.37481   4.50783 
 H                     8.22641   7.28383   7.47669 
 H                     8.67714   8.68083   6.46306 
 H                     5.50678   5.95579   4.44649 
 H                     6.62252   6.68085   3.26455 
 H                     6.6954    8.73707   4.31151 
 H                     5.11371   8.22657   4.90362 
 C                     7.9945    4.77748   4.19306 
 H                     8.7304    4.17659   4.74205 
 H                     8.46709   5.11546   3.24374 
 H                     7.14405   4.13098   3.93531 
 N                     6.65979   8.01141   6.30374 
 C                     6.18415   7.98415   4.93715 
 C                     6.41195   6.5749    4.35168 
 C                     8.07775   7.74613   6.48945 
 C                     8.57403   6.79917   5.38895 
 N                     7.5185    5.87451   5.01724 
 C                     6.19679   5.92483   9.77677 
 H                     6.45479   4.86812   9.6333 
 H                     7.02772   6.44388   10.2814 
 O                     6.02392   6.4704    8.4605 
 O                     3.35339   11.4462   10.6493 
 O                     2.16308   10.9199   12.9436 
 O                     2.41862   8.85505   13.8486 
 N                     4.61959   7.51979   10.6593 
 C                     5.65753   7.79561   8.49044 
 C                     4.95547   8.34145   9.57858 
 C                     4.52236   9.68384   9.5488 
 C                     4.9104    6.07637   10.5699 
 C                     3.88055   8.01607   11.6749 
 C                     3.45165   9.3208    11.7474 
 C                     3.73986   10.2644   10.67 
 C                     4.78867   10.4701   8.41747 
 C                     5.93503   8.56713   7.35249 
 C                     3.74688   5.28609   9.96577 
 C                     5.46735   9.89899   7.36157 
 C                     2.64937   9.64991   12.9336 
 H                     5.10347   5.73447   11.5997 
 H                     3.61027   7.31665   12.4678 
 H                     4.46182   11.5126   8.41598 
 H                     3.96456   4.2096    10.0124 
 H                     2.82602   5.48466   10.5259 
 H                     3.57412   5.55112   8.91236 
 H                     1.65633   10.9806   13.7863 
 

 GradGradGradGradGradGradGradGradGradGradGradGradGradGradGradGradGradGrad
 Berny optimization.
 Initialization pass.
                           ----------------------------
                           !    Initial Parameters    !
                           ! (Angstroms and Degrees)  !
 --------------------------                            --------------------------
 ! Name  Definition              Value          Derivative Info.                !
 --------------------------------------------------------------------------------
 ! R1    R(1,38)                 1.3707         estimate D2E/DX2                !
 ! R2    R(2,18)                 1.0984         estimate D2E/DX2                !
 ! R3    R(3,18)                 1.1152         estimate D2E/DX2                !
 ! R4    R(4,17)                 1.1002         estimate D2E/DX2                !
 ! R5    R(5,17)                 1.1107         estimate D2E/DX2                !
 ! R6    R(6,16)                 1.1007         estimate D2E/DX2                !
 ! R7    R(7,16)                 1.1124         estimate D2E/DX2                !
 ! R8    R(8,15)                 1.1044         estimate D2E/DX2                !
 ! R9    R(9,15)                 1.0981         estimate D2E/DX2                !
 ! R10   R(10,11)                1.0973         estimate D2E/DX2                !
 ! R11   R(10,12)                1.113          estimate D2E/DX2                !
 ! R12   R(10,13)                1.0989         estimate D2E/DX2                !
 ! R13   R(10,19)                1.4524         estimate D2E/DX2                !
 ! R14   R(14,15)                1.4473         estimate D2E/DX2                !
 ! R15   R(14,17)                1.4545         estimate D2E/DX2                !
 ! R16   R(14,36)                1.3907         estimate D2E/DX2                !
 ! R17   R(15,16)                1.5429         estimate D2E/DX2                !
 ! R18   R(16,19)                1.469          estimate D2E/DX2                !
 ! R19   R(17,18)                1.5343         estimate D2E/DX2                !
 ! R20   R(18,19)                1.4517         estimate D2E/DX2                !
 ! R21   R(20,21)                1.0972         estimate D2E/DX2                !
 ! R22   R(20,22)                1.102          estimate D2E/DX2                !
 ! R23   R(20,23)                1.4353         estimate D2E/DX2                !
 ! R24   R(20,31)                1.5188         estimate D2E/DX2                !
 ! R25   R(23,28)                1.3753         estimate D2E/DX2                !
 ! R26   R(24,34)                1.2436         estimate D2E/DX2                !
 ! R27   R(25,39)                1.3599         estimate D2E/DX2                !
 ! R28   R(25,46)                0.9852         estimate D2E/DX2                !
 ! R29   R(26,39)                1.2338         estimate D2E/DX2                !
 ! R30   R(27,29)                1.3985         estimate D2E/DX2                !
 ! R31   R(27,31)                1.4751         estimate D2E/DX2                !
 ! R32   R(27,32)                1.3505         estimate D2E/DX2                !
 ! R33   R(28,29)                1.4053         estimate D2E/DX2                !
 ! R34   R(28,36)                1.4026         estimate D2E/DX2                !
 ! R35   R(29,30)                1.4108         estimate D2E/DX2                !
 ! R36   R(30,34)                1.4854         estimate D2E/DX2                !
 ! R37   R(30,35)                1.4032         estimate D2E/DX2                !
 ! R38   R(31,37)                1.5308         estimate D2E/DX2                !
 ! R39   R(31,40)                1.1021         estimate D2E/DX2                !
 ! R40   R(32,33)                1.3753         estimate D2E/DX2                !
 ! R41   R(32,41)                1.0913         estimate D2E/DX2                !
 ! R42   R(33,34)                1.4609         estimate D2E/DX2                !
 ! R43   R(33,39)                1.4694         estimate D2E/DX2                !
 ! R44   R(35,38)                1.379          estimate D2E/DX2                !
 ! R45   R(35,42)                1.0925         estimate D2E/DX2                !
 ! R46   R(36,38)                1.4116         estimate D2E/DX2                !
 ! R47   R(37,43)                1.0993         estimate D2E/DX2                !
 ! R48   R(37,44)                1.096          estimate D2E/DX2                !
 ! R49   R(37,45)                1.0999         estimate D2E/DX2                !
 ! A1    A(11,10,12)           107.9548         estimate D2E/DX2                !
 ! A2    A(11,10,13)           108.3125         estimate D2E/DX2                !
 ! A3    A(11,10,19)           110.4584         estimate D2E/DX2                !
 ! A4    A(12,10,13)           107.89           estimate D2E/DX2                !
 ! A5    A(12,10,19)           113.192          estimate D2E/DX2                !
 ! A6    A(13,10,19)           108.8948         estimate D2E/DX2                !
 ! A7    A(15,14,17)           115.9465         estimate D2E/DX2                !
 ! A8    A(15,14,36)           123.2536         estimate D2E/DX2                !
 ! A9    A(17,14,36)           118.9909         estimate D2E/DX2                !
 ! A10   A(8,15,9)             106.4674         estimate D2E/DX2                !
 ! A11   A(8,15,14)            111.7122         estimate D2E/DX2                !
 ! A12   A(8,15,16)            109.8387         estimate D2E/DX2                !
 ! A13   A(9,15,14)            110.1854         estimate D2E/DX2                !
 ! A14   A(9,15,16)            109.5107         estimate D2E/DX2                !
 ! A15   A(14,15,16)           109.0858         estimate D2E/DX2                !
 ! A16   A(6,16,7)             107.0623         estimate D2E/DX2                !
 ! A17   A(6,16,15)            111.0772         estimate D2E/DX2                !
 ! A18   A(6,16,19)            108.1946         estimate D2E/DX2                !
 ! A19   A(7,16,15)            108.1671         estimate D2E/DX2                !
 ! A20   A(7,16,19)            110.2185         estimate D2E/DX2                !
 ! A21   A(15,16,19)           112.0097         estimate D2E/DX2                !
 ! A22   A(4,17,5)             107.5787         estimate D2E/DX2                !
 ! A23   A(4,17,14)            108.8408         estimate D2E/DX2                !
 ! A24   A(4,17,18)            109.9114         estimate D2E/DX2                !
 ! A25   A(5,17,14)            111.6902         estimate D2E/DX2                !
 ! A26   A(5,17,18)            109.1352         estimate D2E/DX2                !
 ! A27   A(14,17,18)           109.653          estimate D2E/DX2                !
 ! A28   A(2,18,3)             106.7373         estimate D2E/DX2                !
 ! A29   A(2,18,17)            109.0098         estimate D2E/DX2                !
 ! A30   A(2,18,19)            108.7019         estimate D2E/DX2                !
 ! A31   A(3,18,17)            110.7959         estimate D2E/DX2                !
 ! A32   A(3,18,19)            111.5181         estimate D2E/DX2                !
 ! A33   A(17,18,19)           109.9743         estimate D2E/DX2                !
 ! A34   A(10,19,16)           110.4815         estimate D2E/DX2                !
 ! A35   A(10,19,18)           112.8383         estimate D2E/DX2                !
 ! A36   A(16,19,18)           111.1023         estimate D2E/DX2                !
 ! A37   A(21,20,22)           109.6452         estimate D2E/DX2                !
 ! A38   A(21,20,23)           105.9318         estimate D2E/DX2                !
 ! A39   A(21,20,31)           111.318          estimate D2E/DX2                !
 ! A40   A(22,20,23)           109.3728         estimate D2E/DX2                !
 ! A41   A(22,20,31)           110.6398         estimate D2E/DX2                !
 ! A42   A(23,20,31)           109.8134         estimate D2E/DX2                !
 ! A43   A(20,23,28)           112.2345         estimate D2E/DX2                !
 ! A44   A(39,25,46)           104.3445         estimate D2E/DX2                !
 ! A45   A(29,27,31)           118.7315         estimate D2E/DX2                !
 ! A46   A(29,27,32)           119.7781         estimate D2E/DX2                !
 ! A47   A(31,27,32)           120.8656         estimate D2E/DX2                !
 ! A48   A(23,28,29)           121.6167         estimate D2E/DX2                !
 ! A49   A(23,28,36)           117.367          estimate D2E/DX2                !
 ! A50   A(29,28,36)           120.8912         estimate D2E/DX2                !
 ! A51   A(27,29,28)           119.3492         estimate D2E/DX2                !
 ! A52   A(27,29,30)           120.1054         estimate D2E/DX2                !
 ! A53   A(28,29,30)           120.4368         estimate D2E/DX2                !
 ! A54   A(29,30,34)           121.1756         estimate D2E/DX2                !
 ! A55   A(29,30,35)           119.4652         estimate D2E/DX2                !
 ! A56   A(34,30,35)           119.3099         estimate D2E/DX2                !
 ! A57   A(20,31,27)           107.2325         estimate D2E/DX2                !
 ! A58   A(20,31,37)           112.7161         estimate D2E/DX2                !
 ! A59   A(20,31,40)           107.9756         estimate D2E/DX2                !
 ! A60   A(27,31,37)           112.2862         estimate D2E/DX2                !
 ! A61   A(27,31,40)           106.3473         estimate D2E/DX2                !
 ! A62   A(37,31,40)           109.9839         estimate D2E/DX2                !
 ! A63   A(27,32,33)           123.98           estimate D2E/DX2                !
 ! A64   A(27,32,41)           116.5127         estimate D2E/DX2                !
 ! A65   A(33,32,41)           119.5031         estimate D2E/DX2                !
 ! A66   A(32,33,34)           120.8203         estimate D2E/DX2                !
 ! A67   A(32,33,39)           115.1704         estimate D2E/DX2                !
 ! A68   A(34,33,39)           123.9461         estimate D2E/DX2                !
 ! A69   A(24,34,30)           121.5055         estimate D2E/DX2                !
 ! A70   A(24,34,33)           124.3877         estimate D2E/DX2                !
 ! A71   A(30,34,33)           114.0883         estimate D2E/DX2                !
 ! A72   A(30,35,38)           118.5989         estimate D2E/DX2                !
 ! A73   A(30,35,42)           118.6191         estimate D2E/DX2                !
 ! A74   A(38,35,42)           122.7765         estimate D2E/DX2                !
 ! A75   A(14,36,28)           119.6797         estimate D2E/DX2                !
 ! A76   A(14,36,38)           123.6791         estimate D2E/DX2                !
 ! A77   A(28,36,38)           116.6303         estimate D2E/DX2                !
 ! A78   A(31,37,43)           109.7738         estimate D2E/DX2                !
 ! A79   A(31,37,44)           110.0842         estimate D2E/DX2                !
 ! A80   A(31,37,45)           111.8986         estimate D2E/DX2                !
 ! A81   A(43,37,44)           108.7918         estimate D2E/DX2                !
 ! A82   A(43,37,45)           107.9205         estimate D2E/DX2                !
 ! A83   A(44,37,45)           108.2914         estimate D2E/DX2                !
 ! A84   A(1,38,35)            119.5448         estimate D2E/DX2                !
 ! A85   A(1,38,36)            116.4607         estimate D2E/DX2                !
 ! A86   A(35,38,36)           123.9673         estimate D2E/DX2                !
 ! A87   A(25,39,26)           121.9576         estimate D2E/DX2                !
 ! A88   A(25,39,33)           114.2263         estimate D2E/DX2                !
 ! A89   A(26,39,33)           123.8148         estimate D2E/DX2                !
 ! D1    D(11,10,19,16)       -172.7396         estimate D2E/DX2                !
 ! D2    D(11,10,19,18)         62.2077         estimate D2E/DX2                !
 ! D3    D(12,10,19,16)         66.0772         estimate D2E/DX2                !
 ! D4    D(12,10,19,18)        -58.9754         estimate D2E/DX2                !
 ! D5    D(13,10,19,16)        -53.9144         estimate D2E/DX2                !
 ! D6    D(13,10,19,18)       -178.967          estimate D2E/DX2                !
 ! D7    D(17,14,15,8)         -60.0961         estimate D2E/DX2                !
 ! D8    D(17,14,15,9)        -178.2262         estimate D2E/DX2                !
 ! D9    D(17,14,15,16)         61.526          estimate D2E/DX2                !
 ! D10   D(36,14,15,8)         104.3977         estimate D2E/DX2                !
 ! D11   D(36,14,15,9)         -13.7324         estimate D2E/DX2                !
 ! D12   D(36,14,15,16)       -133.9802         estimate D2E/DX2                !
 ! D13   D(15,14,17,4)        -150.7483         estimate D2E/DX2                !
 ! D14   D(15,14,17,5)          90.6218         estimate D2E/DX2                !
 ! D15   D(15,14,17,18)        -30.4856         estimate D2E/DX2                !
 ! D16   D(36,14,17,4)          44.0604         estimate D2E/DX2                !
 ! D17   D(36,14,17,5)         -74.5695         estimate D2E/DX2                !
 ! D18   D(36,14,17,18)        164.3231         estimate D2E/DX2                !
 ! D19   D(15,14,36,28)        125.24           estimate D2E/DX2                !
 ! D20   D(15,14,36,38)        -56.0018         estimate D2E/DX2                !
 ! D21   D(17,14,36,28)        -70.712          estimate D2E/DX2                !
 ! D22   D(17,14,36,38)        108.0462         estimate D2E/DX2                !
 ! D23   D(8,15,16,6)         -141.9175         estimate D2E/DX2                !
 ! D24   D(8,15,16,7)          -24.697          estimate D2E/DX2                !
 ! D25   D(8,15,16,19)          96.9693         estimate D2E/DX2                !
 ! D26   D(9,15,16,6)          -25.3309         estimate D2E/DX2                !
 ! D27   D(9,15,16,7)           91.8896         estimate D2E/DX2                !
 ! D28   D(9,15,16,19)        -146.4441         estimate D2E/DX2                !
 ! D29   D(14,15,16,6)          95.3311         estimate D2E/DX2                !
 ! D30   D(14,15,16,7)        -147.4484         estimate D2E/DX2                !
 ! D31   D(14,15,16,19)        -25.7821         estimate D2E/DX2                !
 ! D32   D(6,16,19,10)          75.9727         estimate D2E/DX2                !
 ! D33   D(6,16,19,18)        -157.9943         estimate D2E/DX2                !
 ! D34   D(7,16,19,10)         -40.7828         estimate D2E/DX2                !
 ! D35   D(7,16,19,18)          85.2501         estimate D2E/DX2                !
 ! D36   D(15,16,19,10)       -161.264          estimate D2E/DX2                !
 ! D37   D(15,16,19,18)        -35.2311         estimate D2E/DX2                !
 ! D38   D(4,17,18,2)          -32.7139         estimate D2E/DX2                !
 ! D39   D(4,17,18,3)         -149.886          estimate D2E/DX2                !
 ! D40   D(4,17,18,19)          86.3684         estimate D2E/DX2                !
 ! D41   D(5,17,18,2)           85.0405         estimate D2E/DX2                !
 ! D42   D(5,17,18,3)          -32.1316         estimate D2E/DX2                !
 ! D43   D(5,17,18,19)        -155.8772         estimate D2E/DX2                !
 ! D44   D(14,17,18,2)        -152.3227         estimate D2E/DX2                !
 ! D45   D(14,17,18,3)          90.5052         estimate D2E/DX2                !
 ! D46   D(14,17,18,19)        -33.2404         estimate D2E/DX2                !
 ! D47   D(2,18,19,10)         -48.542          estimate D2E/DX2                !
 ! D48   D(2,18,19,16)        -173.2565         estimate D2E/DX2                !
 ! D49   D(3,18,19,10)          68.8635         estimate D2E/DX2                !
 ! D50   D(3,18,19,16)         -55.8511         estimate D2E/DX2                !
 ! D51   D(17,18,19,10)       -167.8127         estimate D2E/DX2                !
 ! D52   D(17,18,19,16)         67.4728         estimate D2E/DX2                !
 ! D53   D(21,20,23,28)        178.3161         estimate D2E/DX2                !
 ! D54   D(22,20,23,28)        -63.5859         estimate D2E/DX2                !
 ! D55   D(31,20,23,28)         58.0045         estimate D2E/DX2                !
 ! D56   D(21,20,31,27)       -177.6309         estimate D2E/DX2                !
 ! D57   D(21,20,31,37)        -53.5546         estimate D2E/DX2                !
 ! D58   D(21,20,31,40)         68.1363         estimate D2E/DX2                !
 ! D59   D(22,20,31,27)         60.1855         estimate D2E/DX2                !
 ! D60   D(22,20,31,37)       -175.7381         estimate D2E/DX2                !
 ! D61   D(22,20,31,40)        -54.0473         estimate D2E/DX2                !
 ! D62   D(23,20,31,27)        -60.6435         estimate D2E/DX2                !
 ! D63   D(23,20,31,37)         63.4329         estimate D2E/DX2                !
 ! D64   D(23,20,31,40)       -174.8763         estimate D2E/DX2                !
 ! D65   D(20,23,28,29)        -27.2685         estimate D2E/DX2                !
 ! D66   D(20,23,28,36)        156.7636         estimate D2E/DX2                !
 ! D67   D(46,25,39,26)          0.2809         estimate D2E/DX2                !
 ! D68   D(46,25,39,33)        179.8861         estimate D2E/DX2                !
 ! D69   D(31,27,29,28)         -5.2828         estimate D2E/DX2                !
 ! D70   D(31,27,29,30)        170.9473         estimate D2E/DX2                !
 ! D71   D(32,27,29,28)       -176.3022         estimate D2E/DX2                !
 ! D72   D(32,27,29,30)         -0.0721         estimate D2E/DX2                !
 ! D73   D(29,27,31,20)         34.4382         estimate D2E/DX2                !
 ! D74   D(29,27,31,37)        -89.9002         estimate D2E/DX2                !
 ! D75   D(29,27,31,40)        149.7604         estimate D2E/DX2                !
 ! D76   D(32,27,31,20)       -154.6435         estimate D2E/DX2                !
 ! D77   D(32,27,31,37)         81.0182         estimate D2E/DX2                !
 ! D78   D(32,27,31,40)        -39.3213         estimate D2E/DX2                !
 ! D79   D(29,27,32,33)         -1.9978         estimate D2E/DX2                !
 ! D80   D(29,27,32,41)        177.2469         estimate D2E/DX2                !
 ! D81   D(31,27,32,33)       -172.8219         estimate D2E/DX2                !
 ! D82   D(31,27,32,41)          6.4228         estimate D2E/DX2                !
 ! D83   D(23,28,29,27)          0.0051         estimate D2E/DX2                !
 ! D84   D(23,28,29,30)       -176.2122         estimate D2E/DX2                !
 ! D85   D(36,28,29,27)        175.8321         estimate D2E/DX2                !
 ! D86   D(36,28,29,30)         -0.3852         estimate D2E/DX2                !
 ! D87   D(23,28,36,14)         -5.5588         estimate D2E/DX2                !
 ! D88   D(23,28,36,38)        175.5972         estimate D2E/DX2                !
 ! D89   D(29,28,36,14)        178.4424         estimate D2E/DX2                !
 ! D90   D(29,28,36,38)         -0.4016         estimate D2E/DX2                !
 ! D91   D(27,29,30,34)          1.7439         estimate D2E/DX2                !
 ! D92   D(27,29,30,35)       -175.683          estimate D2E/DX2                !
 ! D93   D(28,29,30,34)        177.9325         estimate D2E/DX2                !
 ! D94   D(28,29,30,35)          0.5057         estimate D2E/DX2                !
 ! D95   D(29,30,34,24)       -179.8955         estimate D2E/DX2                !
 ! D96   D(29,30,34,33)         -1.3935         estimate D2E/DX2                !
 ! D97   D(35,30,34,24)         -2.4647         estimate D2E/DX2                !
 ! D98   D(35,30,34,33)        176.0373         estimate D2E/DX2                !
 ! D99   D(29,30,35,38)          0.1814         estimate D2E/DX2                !
 ! D100  D(29,30,35,42)       -178.984          estimate D2E/DX2                !
 ! D101  D(34,30,35,38)       -177.2939         estimate D2E/DX2                !
 ! D102  D(34,30,35,42)          3.5408         estimate D2E/DX2                !
 ! D103  D(20,31,37,43)         64.4842         estimate D2E/DX2                !
 ! D104  D(20,31,37,44)       -175.785          estimate D2E/DX2                !
 ! D105  D(20,31,37,45)        -55.3119         estimate D2E/DX2                !
 ! D106  D(27,31,37,43)       -174.2729         estimate D2E/DX2                !
 ! D107  D(27,31,37,44)        -54.542          estimate D2E/DX2                !
 ! D108  D(27,31,37,45)         65.931          estimate D2E/DX2                !
 ! D109  D(40,31,37,43)        -56.0624         estimate D2E/DX2                !
 ! D110  D(40,31,37,44)         63.6685         estimate D2E/DX2                !
 ! D111  D(40,31,37,45)       -175.8585         estimate D2E/DX2                !
 ! D112  D(27,32,33,34)          2.3001         estimate D2E/DX2                !
 ! D113  D(27,32,33,39)        179.519          estimate D2E/DX2                !
 ! D114  D(41,32,33,34)       -176.9234         estimate D2E/DX2                !
 ! D115  D(41,32,33,39)          0.2955         estimate D2E/DX2                !
 ! D116  D(32,33,34,24)        177.914          estimate D2E/DX2                !
 ! D117  D(32,33,34,30)         -0.5384         estimate D2E/DX2                !
 ! D118  D(39,33,34,24)          0.9484         estimate D2E/DX2                !
 ! D119  D(39,33,34,30)       -177.504          estimate D2E/DX2                !
 ! D120  D(32,33,39,25)       -175.9625         estimate D2E/DX2                !
 ! D121  D(32,33,39,26)          3.6344         estimate D2E/DX2                !
 ! D122  D(34,33,39,25)          1.1583         estimate D2E/DX2                !
 ! D123  D(34,33,39,26)       -179.2448         estimate D2E/DX2                !
 ! D124  D(30,35,38,1)        -179.0734         estimate D2E/DX2                !
 ! D125  D(30,35,38,36)         -1.0405         estimate D2E/DX2                !
 ! D126  D(42,35,38,1)           0.0551         estimate D2E/DX2                !
 ! D127  D(42,35,38,36)        178.088          estimate D2E/DX2                !
 ! D128  D(14,36,38,1)           0.4389         estimate D2E/DX2                !
 ! D129  D(14,36,38,35)       -177.6496         estimate D2E/DX2                !
 ! D130  D(28,36,38,1)         179.232          estimate D2E/DX2                !
 ! D131  D(28,36,38,35)          1.1435         estimate D2E/DX2                !
 --------------------------------------------------------------------------------
 Trust Radius=3.00D-01 FncErr=1.00D-07 GrdErr=1.00D-06
 Number of steps in this run=    276 maximum allowed number of steps=    276.
 GradGradGradGradGradGradGradGradGradGradGradGradGradGradGradGradGradGrad

                          Input orientation:                          
 ---------------------------------------------------------------------
 Center     Atomic      Atomic             Coordinates (Angstroms)
 Number     Number       Type             X           Y           Z
 ---------------------------------------------------------------------
      1          9           0        5.754550   10.654700    6.254720
      2          1           0        9.428220    6.223610    5.770580
      3          1           0        8.942590    7.374810    4.507830
      4          1           0        8.226410    7.283830    7.476690
      5          1           0        8.677140    8.680830    6.463060
      6          1           0        5.506780    5.955790    4.446490
      7          1           0        6.622520    6.680850    3.264550
      8          1           0        6.695400    8.737070    4.311510
      9          1           0        5.113710    8.226570    4.903620
     10          6           0        7.994500    4.777480    4.193060
     11          1           0        8.730400    4.176590    4.742050
     12          1           0        8.467090    5.115460    3.243740
     13          1           0        7.144050    4.130980    3.935310
     14          7           0        6.659790    8.011410    6.303740
     15          6           0        6.184150    7.984150    4.937150
     16          6           0        6.411950    6.574900    4.351680
     17          6           0        8.077750    7.746130    6.489450
     18          6           0        8.574030    6.799170    5.388950
     19          7           0        7.518500    5.874510    5.017240
     20          6           0        6.196790    5.924830    9.776770
     21          1           0        6.454790    4.868120    9.633300
     22          1           0        7.027720    6.443880   10.281400
     23          8           0        6.023920    6.470400    8.460500
     24          8           0        3.353390   11.446200   10.649300
     25          8           0        2.163080   10.919900   12.943600
     26          8           0        2.418620    8.855050   13.848600
     27          7           0        4.619590    7.519790   10.659300
     28          6           0        5.657530    7.795610    8.490440
     29          6           0        4.955470    8.341450    9.578580
     30          6           0        4.522360    9.683840    9.548800
     31          6           0        4.910400    6.076370   10.569900
     32          6           0        3.880550    8.016070   11.674900
     33          6           0        3.451650    9.320800   11.747400
     34          6           0        3.739860   10.264400   10.670000
     35          6           0        4.788670   10.470100    8.417470
     36          6           0        5.935030    8.567130    7.352490
     37          6           0        3.746880    5.286090    9.965770
     38          6           0        5.467350    9.898990    7.361570
     39          6           0        2.649370    9.649910   12.933600
     40          1           0        5.103470    5.734470   11.599700
     41          1           0        3.610270    7.316650   12.467800
     42          1           0        4.461820   11.512600    8.415980
     43          1           0        3.964560    4.209600   10.012400
     44          1           0        2.826020    5.484660   10.525900
     45          1           0        3.574120    5.551120    8.912360
     46          1           0        1.656330   10.980600   13.786300
 ---------------------------------------------------------------------
                    Distance matrix (angstroms):
                    1          2          3          4          5
     1  F    0.000000
     2  H    5.776227   0.000000
     3  H    4.896213   1.776411   0.000000
     4  H    4.355005   2.340774   3.055376   0.000000
     5  H    3.532860   2.661124   2.366237   1.783876   0.000000
     6  H    5.040917   4.147606   3.717818   4.282778   4.641506
     7  H    5.048363   3.789618   2.722141   4.547326   4.295562
     8  H    2.887658   3.989320   2.635177   3.804506   2.925683
     9  H    2.851660   4.835128   3.942394   4.147089   3.916151
    10  C    6.618877   2.575930   2.782818   4.137366   4.566732
    11  H    7.287645   2.394811   3.213798   4.169796   4.822125
    12  H    6.863458   2.921761   2.632240   4.762103   4.808327
    13  H    7.061820   3.600660   3.752993   4.863470   5.425958
    14  N    2.794431   3.338367   2.973504   2.087937   2.131480
    15  C    3.008718   3.783926   2.857377   3.333247   3.004790
    16  C    4.549561   3.351800   2.658642   3.682463   3.744857
    17  C    3.729898   2.158381   2.193774   1.100211   1.110688
    18  C    4.854291   1.098431   1.115155   2.171265   2.169099
    19  N    5.243386   2.082408   2.130359   2.921680   3.362778
    20  C    5.913720   5.155673   6.115847   3.355087   4.972760
    21  H    6.737184   5.059570   6.224394   3.691241   5.433785
    22  H    5.963734   5.114530   6.153655   3.163664   4.722738
    23  O    4.737762   4.345783   4.996018   2.545685   3.989404
    24  O    5.069948   9.379814   9.248407   7.151021   7.315339
    25  O    7.596717  11.237865  11.388223   8.937118   9.457474
    26  O    8.487295  11.014235  11.489268   8.763583   9.682233
    27  N    5.524140   6.978724   7.519969   4.815998   5.951484
    28  C    3.630737   4.907843   5.179756   2.808692   3.743251
    29  C    4.127675   6.244326   6.522578   4.029336   4.865436
    30  C    3.648537   7.093349   7.090940   4.875825   5.271624
    31  C    6.347793   6.592864   7.395485   4.692742   6.151234
    32  C    6.312891   8.297623   8.797861   6.086677   7.114243
    33  C    6.103456   9.001908   9.292399   6.722094   7.459193
    34  C    4.868882   8.525828   8.566824   6.261801   6.677033
    35  C    2.375813   6.823791   6.490081   4.780736   4.705465
    36  C    2.365506   4.494096   4.308031   2.629203   2.884992
    37  C    6.828221   7.124338   7.819672   5.500243   6.935467
    38  C    1.370656   5.632775   5.156802   3.803252   3.548801
    39  C    7.433652  10.440364  10.759847   8.153501   8.896124
    40  H    7.293928   7.274707   8.229470   5.399304   6.916446
    41  H    7.371762   8.938458   9.581135   6.798603   7.974400
    42  H    2.660486   7.722479   7.243773   5.739068   5.440748
    43  H    7.672258   7.204225   8.068434   5.834731   7.402575
    44  H    7.317690   8.169955   8.786482   6.457469   7.807546
    45  H    6.153361   6.677837   7.179568   5.167904   6.467996
    46  H    8.580578  12.136021  12.336179   9.830729  10.402430
                    6          7          8          9         10
     6  H    0.000000
     7  H    1.779767   0.000000
     8  H    3.027632   2.308566   0.000000
     9  H    2.349450   2.711514   1.764355   0.000000
    10  C    2.764307   2.523346   4.168938   4.549733   0.000000
    11  H    3.693864   3.591307   5.012441   5.432209   1.097273
    12  H    3.303967   2.419363   4.170741   4.866145   1.113005
    13  H    2.504374   2.687703   4.643154   4.672661   1.098937
    14  N    3.000730   3.317899   2.120573   2.096901   4.085918
    15  C    2.194042   2.165260   1.104396   1.098059   3.756830
    16  C    1.100736   1.112392   2.181040   2.172114   2.400072
    17  C    3.740172   3.694928   2.763381   3.395764   3.754094
    18  C    3.317762   2.887121   2.906129   3.774497   2.419347
    19  N    2.092697   2.127178   3.061013   3.365726   1.452351
    20  C    5.374845   6.569766   6.166553   5.497150   5.977122
    21  H    5.383748   6.623828   6.583929   5.953785   5.654656
    22  H    6.049600   7.032533   6.403807   5.980128   6.385878
    23  O    4.079771   5.234549   4.775227   4.069891   4.996019
    24  O    8.559004   9.377116   7.660026   6.817447  10.377609
    25  O   10.393440  11.469096   9.990978   8.977835  12.178125
    26  O   10.312231  11.594052  10.452792   9.363288  11.872088
    27  N    6.467782   7.707002   6.788608   5.819927   7.792467
    28  C    4.445357   5.429901   4.407604   3.653320   5.747870
    29  C    5.686270   6.738221   5.561106   4.679048   7.137325
    30  C    6.395390   7.274642   5.748711   4.904185   8.050595
    31  C    6.153565   7.527608   7.030860   6.063945   7.201588
    32  C    7.690207   8.946239   7.915980   6.885872   9.131866
    33  C    8.297598   9.433053   8.133579   7.127209   9.917020
    34  C    7.772915   8.717353   7.176235   6.268282   9.495210
    35  C    6.055028   6.653871   4.847465   4.181653   7.780033
    36  C    3.930309   4.554333   3.139204   2.605285   5.346481
    37  C    5.831655   7.424353   7.250772   6.011656   7.185064
    38  C    4.903883   5.336330   3.487267   2.993922   6.531141
    39  C    9.687226  10.867004   9.567867   8.519357  11.344956
    40  H    7.167988   8.525132   8.041614   7.144799   8.008258
    41  H    8.354047   9.704520   8.835196   7.765636   9.702586
    42  H    6.908468   7.385910   5.434990   4.853826   8.699122
    43  H    6.033819   7.661939   7.775321   6.599714   7.101241
    44  H    6.660906   8.280790   8.010550   6.660453   8.204764
    45  H    4.882922   6.516655   6.407846   5.059483   6.512301
    46  H   11.283028  12.403956  10.963453   9.921702  13.064507
                   11         12         13         14         15
    11  H    0.000000
    12  H    1.787664   0.000000
    13  H    1.780285   1.788269   0.000000
    14  N    4.629487   4.584371   4.571838   0.000000
    15  C    4.584645   4.038420   4.095365   1.447254   0.000000
    16  C    3.358495   2.753379   2.584972   2.436293   1.542937
    17  C    4.027527   4.196027   4.523797   1.454466   2.460083
    18  C    2.705708   2.729147   3.358147   2.443498   2.705518
    19  N    2.104130   2.149717   2.085829   2.637955   2.497496
    20  C    5.901180   6.963463   6.183676   4.078005   5.259551
    21  H    5.438836   6.703507   5.786670   4.583478   5.642403
    22  H    6.222871   7.305145   6.755435   4.291189   5.625393
    23  O    5.139404   5.917730   5.215834   2.725923   3.838113
    24  O   10.800698  11.003205  10.628227   6.450888   7.254492
    25  O   12.484684  12.942927  12.330806   8.530384   9.428196
    26  O   12.027294  12.768382  11.954909   8.696215   9.713476
    27  N    7.942896   8.693365   7.941598   4.834771   5.950334
    28  C    6.048989   6.527227   6.032285   2.415109   3.597047
    29  C    7.415401   7.928978   7.373224   3.706509   4.814581
    30  C    8.434586   8.728389   8.319783   4.230372   5.188237
    31  C    7.222562   8.200367   7.265777   5.000487   6.081935
    32  C    9.291236  10.026682   9.254491   6.047607   7.120735
    33  C   10.168728  10.730879  10.079524   6.452914   7.458733
    34  C    9.854314  10.198413   9.724371   5.715434   6.636239
    35  C    8.285784   8.304843   8.113077   3.743541   4.498882
    36  C    5.822829   5.933564   5.728724   1.390675   2.497157
    37  C    7.304363   8.215545   7.017228   5.415060   6.205387
    38  C    7.089093   6.988356   6.915238   2.470602   3.171471
    39  C   11.577463  12.177869  11.473010   7.919798   8.900148
    40  H    7.912583   9.028797   8.091849   5.971079   7.114668
    41  H    9.785853  10.654446   9.769313   6.912156   7.986307
    42  H    9.248545   9.149735   9.042073   4.642301   5.245821
    43  H    7.105696   8.179738   6.859035   5.955853   6.703131
    44  H    8.368134   9.218885   7.994605   6.237699   6.982737
    45  H    6.772595   7.500947   6.287466   4.730675   5.341740
    46  H   13.346740  13.853949  13.193725   9.478365  10.382067
                   16         17         18         19         20
    16  C    0.000000
    17  C    2.952411   0.000000
    18  C    2.408488   1.534317   0.000000
    19  N    1.469003   2.446043   1.451657   0.000000
    20  C    5.468134   4.202573   5.066429   4.939896   0.000000
    21  H    5.550716   4.560782   5.121976   4.842758   1.097171
    22  H    5.963046   4.144551   5.143284   5.317558   1.102048
    23  O    4.128425   3.119414   4.005692   3.800644   1.435304
    24  O    8.529031   7.301674   8.747643   8.950529   6.271504
    25  O   10.523926   9.311938  10.730957  10.814974   7.158935
    26  O   10.551647   9.349468  10.662148  10.624750   6.280172
    27  N    6.625062   5.421969   6.628233   6.553126   2.410460
    28  C    4.380481   3.140681   4.372426   4.383714   2.333509
    29  C    5.706358   4.432354   5.746791   5.784526   2.724006
    30  C    6.343983   5.074952   6.483957   6.634974   4.121388
    31  C    6.416342   5.428653   6.386460   6.137994   1.518822
    32  C    7.881276   6.676694   7.938688   7.883235   3.652554
    33  C    8.426151   7.178191   8.545600   8.585525   4.790802
    34  C    7.789329   6.529623   7.954025   8.093389   5.066185
    35  C    5.859886   4.685651   6.080840   6.335060   4.948735
    36  C    3.633358   2.451556   3.734366   3.900125   3.595470
    37  C    6.346782   6.073963   6.821882   6.249744   2.538852
    38  C    4.582715   3.494222   4.811608   5.089159   4.707358
    39  C    9.862152   8.638215  10.007500  10.031492   6.035394
    40  H    7.412978   6.245620   7.193872   7.012900   2.134165
    41  H    8.618063   7.475527   8.661225   8.536092   3.983578
    42  H    6.685987   5.565318   6.949072   7.258291   6.007083
    43  H    6.605158   6.468118   7.023487   6.352483   2.824958
    44  H    7.222777   6.999132   7.820218   7.246840   3.480953
    45  H    5.468200   5.565181   6.242687   5.552898   2.786622
    46  H   11.447190  10.244045  11.655660  11.718942   7.890052
                   21         22         23         24         25
    21  H    0.000000
    22  H    1.797582   0.000000
    23  O    2.031849   2.079422   0.000000
    24  O    7.343165   6.217657   6.056497   0.000000
    25  O    8.124094   7.126485   7.402859   2.637734   0.000000
    26  O    7.067887   6.307334   6.907703   4.221774   2.268905
    27  N    3.384079   2.664485   2.812131   4.125537   4.776318
    28  C    3.242214   2.629093   1.375253   4.826649   6.465524
    29  C    3.783514   2.896368   2.427451   3.654117   5.076338
    30  C    5.189661   4.160634   3.710158   2.384010   4.314941
    31  C    2.173069   2.168257   2.417593   5.591570   6.053264
    32  C    4.550212   3.783953   4.161190   3.618777   3.604377
    33  C    5.771883   4.818101   5.054213   2.394327   2.376642
    34  C    6.129064   5.055433   4.949066   1.243559   2.843444
    35  C    5.969621   4.969711   4.186322   2.827342   5.251847
    36  C    4.376633   3.778978   2.373155   5.081620   7.143084
    37  C    2.760075   3.493424   2.975456   6.210395   6.566255
    38  C    5.607624   4.785180   3.643164   4.203790   6.566545
    39  C    6.945410   6.040095   6.442476   2.990038   1.359946
    40  H    2.538377   2.438015   3.353118   6.048959   6.110699
    41  H    4.703295   4.149824   4.753977   4.519526   3.912053
    42  H    7.042933   5.979595   5.278818   2.494142   5.112225
    43  H    2.603577   3.800963   3.429369   7.290237   7.540914
    44  H    3.787457   4.316731   3.932445   5.986093   5.985532
    45  H    3.047048   3.820817   2.655329   6.149606   6.860447
    46  H    8.811075   7.856079   8.232976   3.596883   0.985202
                   26         27         28         29         30
    26  O    0.000000
    27  N    4.098637   0.000000
    28  C    6.350026   2.420196   0.000000
    29  C    4.993242   1.398534   1.405304   0.000000
    30  C    4.858075   2.434292   2.444207   1.410844   0.000000
    31  C    4.967887   1.475135   2.799668   2.472920   3.769225
    32  C    2.750654   1.350525   3.653361   2.378210   2.777351
    33  C    2.387282   2.406591   4.218993   2.815028   2.472258
    34  C    3.719602   2.882173   3.810888   2.523221   1.485411
    35  C    6.141881   3.709275   2.813030   2.430463   1.403222
    36  C    7.392394   3.709757   1.402562   2.442529   2.840151
    37  C    5.438577   2.496402   3.482079   3.308448   4.485024
    38  C    7.243350   4.153831   2.394728   2.757369   2.392336
    39  C    1.233804   3.686681   5.677070   4.276251   3.868606
    40  H    4.690841   2.075057   3.771310   3.301996   4.487917
    41  H    2.386066   2.081025   4.498896   3.347741   3.867306
    42  H    6.383620   4.582566   3.905289   3.413432   2.152048
    43  H    6.219853   3.435826   4.247585   4.271099   5.522080
    44  H    4.750351   2.715961   4.183424   3.686899   4.633077
    45  H    6.051248   2.832043   3.091335   3.184010   4.287609
    46  H    2.258967   5.525961   7.362058   5.962746   5.277511
                   31         32         33         34         35
    31  C    0.000000
    32  C    2.458465   0.000000
    33  C    3.747103   1.375330   0.000000
    34  C    4.349687   2.466699   1.460903   0.000000
    35  C    4.894143   4.178253   3.767884   2.493232   0.000000
    36  C    4.195888   4.817446   5.103962   4.324970   2.463660
    37  C    1.530782   3.223629   4.420436   5.027878   5.509675
    38  C    5.021553   4.966703   4.861363   3.750127   1.379021
    39  C    4.844535   2.401991   1.469366   2.586629   5.064064
    40  H    1.102116   2.589766   3.951213   4.821207   5.714182
    41  H    2.613553   1.091297   2.135592   3.455157   5.266692
    42  H    5.864571   4.814993   4.113732   2.675787   1.092538
    43  H    2.165698   4.154537   5.421962   6.094549   6.512820
    44  H    2.167186   2.973259   4.074242   4.868448   5.757785
    45  H    2.192937   3.715038   4.718362   5.033068   5.090816
    46  H    6.707136   4.265396   3.183587   3.816460   6.236706
                   36         37         38         39         40
    36  C    0.000000
    37  C    4.731010   0.000000
    38  C    1.411615   5.569625   0.000000
    39  C    6.566336   5.390312   6.249046   0.000000
    40  H    5.172451   2.170509   5.952930   4.809633   0.000000
    41  H    5.756267   3.225212   6.015880   2.566009   2.342336
    42  H    3.460802   6.456192   2.174076   5.211860   6.628316
    43  H    5.472288   1.099268   6.454025   6.313486   2.478279
    44  H    5.407226   1.095974   6.039530   4.814305   2.530263
    45  H    4.135627   1.099891   4.989313   5.815979   3.097471
    46  H    8.094815   7.168981   7.547908   1.866537   6.647246
                   41         42         43         44         45
    41  H    0.000000
    42  H    5.894776   0.000000
    43  H    3.975962   7.491971   0.000000
    44  H    2.782483   6.592698   1.784862   0.000000
    45  H    3.969831   6.047615   1.778260   1.779770   0.000000
    46  H    4.356702   6.082280   8.088058   6.496441   7.544035
                   46
    46  H    0.000000
 Stoichiometry    C18H20FN3O4
 Framework group  C1[X(C18H20FN3O4)]
 Deg. of freedom   132
 Full point group                 C1      NOp   1
 Largest Abelian subgroup         C1      NOp   1
 Largest concise Abelian subgroup C1      NOp   1
                         Standard orientation:                         
 ---------------------------------------------------------------------
 Center     Atomic      Atomic             Coordinates (Angstroms)
 Number     Number       Type             X           Y           Z
 ---------------------------------------------------------------------
      1          9           0        1.345421   -3.271579    0.139652
      2          1           0        5.015048    0.687655   -1.915368
      3          1           0        5.409947   -0.871254   -1.160721
      4          1           0        2.699165    0.351362   -1.862283
      5          1           0        3.278088   -1.321390   -2.083558
      6          1           0        4.219602    0.353672    2.141522
      7          1           0        5.484821   -0.753629    1.557846
      8          1           0        4.004035   -2.241498    0.597118
      9          1           0        2.910768   -1.568640    1.807481
     10          6           0        6.045797    1.384144    0.340263
     11          1           0        6.167688    2.163443   -0.422523
     12          1           0        6.932015    0.712713    0.289467
     13          1           0        6.043077    1.865410    1.328210
     14          7           0        2.624400   -0.800904   -0.122693
     15          6           0        3.495045   -1.313813    0.913380
     16          6           0        4.541730   -0.238104    1.271089
     17          6           0        3.266498   -0.460030   -1.382449
     18          6           0        4.708295   -0.005445   -1.120342
     19          7           0        4.786726    0.684466    0.154482
     20          6           0        0.290265    2.460721   -0.860079
     21          1           0        0.880979    3.383414   -0.801096
     22          1           0        0.126852    2.192300   -1.916372
     23          8           0        1.082535    1.444599   -0.227702
     24          8           0       -3.637485   -2.338470    0.073892
     25          8           0       -5.898692   -0.984349    0.178507
     26          8           0       -5.820120    1.273933   -0.026244
     27          7           0       -1.726158    1.305829   -0.219314
     28          6           0        0.440949    0.228570   -0.196709
     29          6           0       -0.961250    0.135334   -0.191880
     30          6           0       -1.593636   -1.120830   -0.079538
     31          6           0       -1.035477    2.606449   -0.133450
     32          6           0       -3.072153    1.229507   -0.139379
     33          6           0       -3.772238    0.047780   -0.069148
     34          6           0       -3.073750   -1.234631   -0.027006
     35          6           0       -0.810980   -2.279519    0.038451
     36          6           0        1.239326   -0.918909   -0.082399
     37          6           0       -0.868123    3.080543    1.312414
     38          6           0        0.562016   -2.150896    0.044554
     39          6           0       -5.231739    0.190582    0.023054
     40          1           0       -1.654525    3.324143   -0.695904
     41          1           0       -3.613444    2.176879   -0.118878
     42          1           0       -1.314755   -3.246504    0.107669
     43          1           0       -0.443648    4.094478    1.324548
     44          1           0       -1.840636    3.098875    1.817430
     45          1           0       -0.194755    2.424889    1.883774
     46          1           0       -6.847264   -0.722274    0.224876
 ---------------------------------------------------------------------
 Rotational constants (GHZ):      0.4440446      0.1161969      0.0971316
 Standard basis: 3-21G (6D, 7F)
 There are   274 symmetry adapted cartesian basis functions of A   symmetry.
 There are   274 symmetry adapted basis functions of A   symmetry.
   274 basis functions,   450 primitive gaussians,   274 cartesian basis functions
    95 alpha electrons       95 beta electrons
       nuclear repulsion energy      2438.2055263066 Hartrees.
 NAtoms=   46 NActive=   46 NUniq=   46 SFac= 1.00D+00 NAtFMM=   60 NAOKFM=F Big=F
 Integral buffers will be    131072 words long.
 Raffenetti 2 integral format.
 Two-electron integral symmetry is turned on.
 One-electron integrals computed using PRISM.
 PrsmSu:  requested number of processors reduced to:   9 ShMem   1 Linda.
 NBasis=   274 RedAO= T EigKep=  1.17D-03  NBF=   274
 NBsUse=   274 1.00D-06 EigRej= -1.00D+00 NBFU=   274
 ExpMin= 1.83D-01 ExpMax= 4.14D+02 ExpMxC= 4.14D+02 IAcc=1 IRadAn=         1 AccDes= 0.00D+00
 Harris functional with IExCor=  402 and IRadAn=       1 diagonalized for initial guess.
 HarFok:  IExCor=  402 AccDes= 0.00D+00 IRadAn=         1 IDoV= 1 UseB2=F ITyADJ=14
 ICtDFT=  3500011 ScaDFX=  1.000000  1.000000  1.000000  1.000000
 FoFCou: FMM=F IPFlag=           0 FMFlag=      100000 FMFlg1=           0
         NFxFlg=           0 DoJE=T BraDBF=F KetDBF=T FulRan=T
         wScrn=  0.000000 ICntrl=     500 IOpCl=  0 I1Cent=   200000004 NGrid=           0
         NMat0=    1 NMatS0=      1 NMatT0=    0 NMatD0=    1 NMtDS0=    0 NMtDT0=    0
 Petite list used in FoFCou.
 Requested convergence on RMS density matrix=1.00D-08 within 128 cycles.
 Requested convergence on MAX density matrix=1.00D-06.
 Requested convergence on             energy=1.00D-06.
 No special actions if energy rises.
 Integral accuracy reduced to 1.0D-05 until final iterations.
 EnCoef did     2 forward-backward iterations
 Initial convergence to 1.0D-05 achieved.  Increase integral accuracy.
 SCF Done:  E(RB3LYP) =  -1256.00536649     A.U. after   17 cycles
            NFock= 17  Conv=0.90D-08     -V/T= 2.0080

 **********************************************************************

            Population analysis using the SCF density.

 **********************************************************************

 Orbital symmetries:
       Occupied  (A) (A) (A) (A) (A) (A) (A) (A) (A) (A) (A) (A)
                 (A) (A) (A) (A) (A) (A) (A) (A) (A) (A) (A) (A)
                 (A) (A) (A) (A) (A) (A) (A) (A) (A) (A) (A) (A)
                 (A) (A) (A) (A) (A) (A) (A) (A) (A) (A) (A) (A)
                 (A) (A) (A) (A) (A) (A) (A) (A) (A) (A) (A) (A)
                 (A) (A) (A) (A) (A) (A) (A) (A) (A) (A) (A) (A)
                 (A) (A) (A) (A) (A) (A) (A) (A) (A) (A) (A) (A)
                 (A) (A) (A) (A) (A) (A) (A) (A) (A) (A) (A)
       Virtual   (A) (A) (A) (A) (A) (A) (A) (A) (A) (A) (A) (A)
                 (A) (A) (A) (A) (A) (A) (A) (A) (A) (A) (A) (A)
                 (A) (A) (A) (A) (A) (A) (A) (A) (A) (A) (A) (A)
                 (A) (A) (A) (A) (A) (A) (A) (A) (A) (A) (A) (A)
                 (A) (A) (A) (A) (A) (A) (A) (A) (A) (A) (A) (A)
                 (A) (A) (A) (A) (A) (A) (A) (A) (A) (A) (A) (A)
                 (A) (A) (A) (A) (A) (A) (A) (A) (A) (A) (A) (A)
                 (A) (A) (A) (A) (A) (A) (A) (A) (A) (A) (A) (A)
                 (A) (A) (A) (A) (A) (A) (A) (A) (A) (A) (A) (A)
                 (A) (A) (A) (A) (A) (A) (A) (A) (A) (A) (A) (A)
                 (A) (A) (A) (A) (A) (A) (A) (A) (A) (A) (A) (A)
                 (A) (A) (A) (A) (A) (A) (A) (A) (A) (A) (A) (A)
                 (A) (A) (A) (A) (A) (A) (A) (A) (A) (A) (A) (A)
                 (A) (A) (A) (A) (A) (A) (A) (A) (A) (A) (A) (A)
                 (A) (A) (A) (A) (A) (A) (A) (A) (A) (A) (A)
 The electronic state is 1-A.
 Alpha  occ. eigenvalues --  -24.56801 -19.09522 -19.06787 -19.01241 -18.99579
 Alpha  occ. eigenvalues --  -14.34314 -14.25733 -14.24158 -10.24888 -10.21516
 Alpha  occ. eigenvalues --  -10.21042 -10.20795 -10.20769 -10.20009 -10.19774
 Alpha  occ. eigenvalues --  -10.19670 -10.18068 -10.15659 -10.15381 -10.15029
 Alpha  occ. eigenvalues --  -10.14944 -10.14552 -10.14235 -10.14127 -10.13928
 Alpha  occ. eigenvalues --  -10.13697  -1.20559  -1.10358  -1.09773  -1.02174
 Alpha  occ. eigenvalues --   -1.01294  -1.00387  -0.96165  -0.92178  -0.87647
 Alpha  occ. eigenvalues --   -0.83926  -0.80322  -0.78603  -0.76993  -0.75767
 Alpha  occ. eigenvalues --   -0.73216  -0.72058  -0.68180  -0.67211  -0.66080
 Alpha  occ. eigenvalues --   -0.65441  -0.63429  -0.61213  -0.58899  -0.57628
 Alpha  occ. eigenvalues --   -0.55943  -0.54337  -0.53706  -0.52328  -0.51782
 Alpha  occ. eigenvalues --   -0.50928  -0.49852  -0.49136  -0.48734  -0.47982
 Alpha  occ. eigenvalues --   -0.47210  -0.46920  -0.45612  -0.44995  -0.44642
 Alpha  occ. eigenvalues --   -0.44211  -0.43511  -0.42737  -0.42677  -0.42273
 Alpha  occ. eigenvalues --   -0.41759  -0.41221  -0.40917  -0.40684  -0.39628
 Alpha  occ. eigenvalues --   -0.38915  -0.37948  -0.37444  -0.37040  -0.36831
 Alpha  occ. eigenvalues --   -0.36301  -0.35941  -0.35466  -0.35201  -0.33852
 Alpha  occ. eigenvalues --   -0.33613  -0.31571  -0.29006  -0.26874  -0.25858
 Alpha  occ. eigenvalues --   -0.24955  -0.22218  -0.21273  -0.20471  -0.19139
 Alpha virt. eigenvalues --   -0.04274  -0.03706   0.01522   0.04203   0.06623
 Alpha virt. eigenvalues --    0.08513   0.10187   0.10617   0.11547   0.12410
 Alpha virt. eigenvalues --    0.12918   0.13013   0.13479   0.14055   0.14444
 Alpha virt. eigenvalues --    0.14515   0.15400   0.15552   0.16281   0.16577
 Alpha virt. eigenvalues --    0.17734   0.17939   0.18261   0.18906   0.19601
 Alpha virt. eigenvalues --    0.19694   0.20013   0.20501   0.21248   0.21810
 Alpha virt. eigenvalues --    0.22249   0.22698   0.23482   0.23745   0.25048
 Alpha virt. eigenvalues --    0.25615   0.26306   0.26825   0.27873   0.28951
 Alpha virt. eigenvalues --    0.30530   0.30904   0.33744   0.34109   0.34741
 Alpha virt. eigenvalues --    0.37053   0.39028   0.41339   0.42478   0.44836
 Alpha virt. eigenvalues --    0.45428   0.50566   0.55343   0.58394   0.62454
 Alpha virt. eigenvalues --    0.63100   0.63481   0.66082   0.66256   0.66688
 Alpha virt. eigenvalues --    0.67240   0.67865   0.69204   0.70108   0.70258
 Alpha virt. eigenvalues --    0.71143   0.71417   0.72191   0.72747   0.72836
 Alpha virt. eigenvalues --    0.73147   0.74168   0.74362   0.75151   0.75758
 Alpha virt. eigenvalues --    0.76134   0.77027   0.77404   0.78275   0.79209
 Alpha virt. eigenvalues --    0.79601   0.80295   0.81849   0.83223   0.84280
 Alpha virt. eigenvalues --    0.85321   0.85817   0.85977   0.87952   0.88103
 Alpha virt. eigenvalues --    0.90349   0.92026   0.93294   0.94965   0.95763
 Alpha virt. eigenvalues --    0.96179   0.96623   0.98325   0.98926   0.99613
 Alpha virt. eigenvalues --    1.00398   1.00719   1.02652   1.03186   1.03662
 Alpha virt. eigenvalues --    1.04168   1.05254   1.05823   1.06899   1.07495
 Alpha virt. eigenvalues --    1.08446   1.09236   1.10776   1.11392   1.12519
 Alpha virt. eigenvalues --    1.13845   1.14978   1.15128   1.17746   1.18553
 Alpha virt. eigenvalues --    1.19873   1.21950   1.24145   1.27274   1.31528
 Alpha virt. eigenvalues --    1.33428   1.34435   1.36360   1.38601   1.40415
 Alpha virt. eigenvalues --    1.41688   1.44316   1.44612   1.45857   1.49776
 Alpha virt. eigenvalues --    1.51821   1.52647   1.55650   1.57256   1.58027
 Alpha virt. eigenvalues --    1.59742   1.61998   1.63700   1.64133   1.65487
 Alpha virt. eigenvalues --    1.66073   1.67420   1.69231   1.71463   1.73144
 Alpha virt. eigenvalues --    1.74366   1.79024   1.81079   1.83268   1.86489
 Alpha virt. eigenvalues --    1.89799   1.91926   1.92322   1.93351   1.95890
 Alpha virt. eigenvalues --    1.98507   2.00615   2.05461   2.08184   2.09815
 Alpha virt. eigenvalues --    2.12175   2.18119   2.24942   2.26277   2.31629
 Alpha virt. eigenvalues --    2.44157   2.78187   2.93961   2.98574   3.15794
 Alpha virt. eigenvalues --    3.44410   3.51646   3.58360   4.02395
          Condensed to atoms (all electrons):
               1          2          3          4          5          6
     1  F    9.092034   0.000000   0.000000   0.000000   0.000048   0.000000
     2  H    0.000000   0.526829  -0.040057  -0.006474   0.001776  -0.000071
     3  H    0.000000  -0.040057   0.644475   0.003714  -0.000276  -0.000392
     4  H    0.000000  -0.006474   0.003714   0.546687  -0.043845  -0.000012
     5  H    0.000048   0.001776  -0.000276  -0.043845   0.622556   0.000003
     6  H    0.000000  -0.000071  -0.000392  -0.000012   0.000003   0.542835
     7  H    0.000000  -0.000266   0.008720  -0.000001   0.000124  -0.045705
     8  H    0.000916   0.000025   0.000466  -0.000301   0.004382   0.003550
     9  H    0.000338   0.000000  -0.000021  -0.000069  -0.000121  -0.005057
    10  C    0.000000  -0.003321  -0.003031  -0.000044  -0.000077  -0.000920
    11  H    0.000000   0.005380  -0.001038  -0.000025  -0.000003   0.000033
    12  H    0.000000  -0.001736   0.011298   0.000011   0.000011  -0.001262
    13  H    0.000000   0.000133  -0.000338  -0.000001   0.000001   0.004548
    14  N   -0.003656   0.002256   0.000097  -0.039506  -0.051508   0.001426
    15  C    0.005053   0.000175  -0.001516   0.003502  -0.001399  -0.031870
    16  C    0.000040   0.004584  -0.004843   0.000383  -0.000637   0.367517
    17  C   -0.000117  -0.031043  -0.061699   0.356777   0.346229   0.000152
    18  C    0.000000   0.372413   0.333818  -0.028090  -0.055885   0.004681
    19  N    0.000000  -0.032263  -0.053198   0.001228   0.002519  -0.040444
    20  C    0.000000   0.000000   0.000000   0.000853  -0.000007   0.000000
    21  H    0.000000   0.000000   0.000000  -0.000060   0.000000   0.000000
    22  H    0.000000  -0.000001   0.000000  -0.000152   0.000000   0.000000
    23  O    0.000000  -0.000002  -0.000001   0.009936   0.000053   0.000007
    24  O    0.000000   0.000000   0.000000   0.000000   0.000000   0.000000
    25  O    0.000000   0.000000   0.000000   0.000000   0.000000   0.000000
    26  O    0.000000   0.000000   0.000000   0.000000   0.000000   0.000000
    27  N    0.000000   0.000000   0.000000   0.000001   0.000000   0.000000
    28  C    0.002878  -0.000009   0.000001   0.005638  -0.000571  -0.000053
    29  C   -0.000224   0.000000   0.000000   0.000039   0.000052   0.000000
    30  C    0.002963   0.000000   0.000000  -0.000005  -0.000008   0.000000
    31  C    0.000000   0.000000   0.000000   0.000073   0.000000   0.000000
    32  C    0.000000   0.000000   0.000000   0.000000   0.000000   0.000000
    33  C    0.000000   0.000000   0.000000   0.000000   0.000000   0.000000
    34  C   -0.000004   0.000000   0.000000   0.000000   0.000000   0.000000
    35  C   -0.063526   0.000000   0.000000   0.000029  -0.000030   0.000000
    36  C   -0.062515  -0.000050  -0.000104  -0.012950  -0.002032   0.000144
    37  C    0.000000   0.000000   0.000000   0.000000   0.000000   0.000000
    38  C    0.323058   0.000001  -0.000001  -0.000992   0.002709   0.000011
    39  C    0.000000   0.000000   0.000000   0.000000   0.000000   0.000000
    40  H    0.000000   0.000000   0.000000  -0.000001   0.000000   0.000000
    41  H    0.000000   0.000000   0.000000   0.000000   0.000000   0.000000
    42  H   -0.002108   0.000000   0.000000   0.000000   0.000000   0.000000
    43  H    0.000000   0.000000   0.000000   0.000000   0.000000   0.000000
    44  H    0.000000   0.000000   0.000000   0.000000   0.000000   0.000000
    45  H    0.000000   0.000000   0.000000  -0.000001   0.000000   0.000000
    46  H    0.000000   0.000000   0.000000   0.000000   0.000000   0.000000
               7          8          9         10         11         12
     1  F    0.000000   0.000916   0.000338   0.000000   0.000000   0.000000
     2  H   -0.000266   0.000025   0.000000  -0.003321   0.005380  -0.001736
     3  H    0.008720   0.000466  -0.000021  -0.003031  -0.001038   0.011298
     4  H   -0.000001  -0.000301  -0.000069  -0.000044  -0.000025   0.000011
     5  H    0.000124   0.004382  -0.000121  -0.000077  -0.000003   0.000011
     6  H   -0.045705   0.003550  -0.005057  -0.000920   0.000033  -0.001262
     7  H    0.655709  -0.000233   0.001504  -0.007601  -0.000233   0.015309
     8  H   -0.000233   0.584635  -0.031627  -0.000069   0.000002  -0.000014
     9  H    0.001504  -0.031627   0.500234  -0.000061   0.000001  -0.000001
    10  C   -0.007601  -0.000069  -0.000061   5.183447   0.366073   0.320637
    11  H   -0.000233   0.000002   0.000001   0.366073   0.533420  -0.041108
    12  H    0.015309  -0.000014  -0.000001   0.320637  -0.041108   0.645008
    13  H   -0.002486   0.000006  -0.000003   0.368036  -0.022526  -0.040188
    14  N    0.003107  -0.045999  -0.026228   0.000081   0.000008  -0.000001
    15  C   -0.048178   0.360531   0.376908   0.004648  -0.000126  -0.000275
    16  C    0.318787  -0.067872  -0.032617  -0.086406   0.004818  -0.006413
    17  C   -0.000277  -0.000576   0.003203   0.004810   0.000131  -0.000299
    18  C   -0.003757  -0.001873   0.000207  -0.080583  -0.002802  -0.007013
    19  N   -0.052916   0.000485   0.001659   0.309070  -0.033979  -0.050033
    20  C    0.000000   0.000000   0.000000   0.000000   0.000000   0.000000
    21  H    0.000000   0.000000   0.000000   0.000000   0.000000   0.000000
    22  H    0.000000   0.000000   0.000000   0.000000   0.000000   0.000000
    23  O    0.000000   0.000000  -0.000004   0.000000   0.000000   0.000000
    24  O    0.000000   0.000000   0.000000   0.000000   0.000000   0.000000
    25  O    0.000000   0.000000   0.000000   0.000000   0.000000   0.000000
    26  O    0.000000   0.000000   0.000000   0.000000   0.000000   0.000000
    27  N    0.000000   0.000000   0.000000   0.000000   0.000000   0.000000
    28  C   -0.000002  -0.000363   0.000724  -0.000001   0.000000   0.000000
    29  C    0.000000   0.000004  -0.000008   0.000000   0.000000   0.000000
    30  C    0.000000  -0.000001  -0.000005   0.000000   0.000000   0.000000
    31  C    0.000000   0.000000   0.000000   0.000000   0.000000   0.000000
    32  C    0.000000   0.000000   0.000000   0.000000   0.000000   0.000000
    33  C    0.000000   0.000000   0.000000   0.000000   0.000000   0.000000
    34  C    0.000000   0.000000   0.000000   0.000000   0.000000   0.000000
    35  C    0.000000  -0.000008  -0.000060   0.000000   0.000000   0.000000
    36  C   -0.000060  -0.000505  -0.002189   0.000006   0.000000   0.000000
    37  C    0.000000   0.000000   0.000000   0.000000   0.000000   0.000000
    38  C    0.000001   0.001701  -0.000476   0.000000   0.000000   0.000000
    39  C    0.000000   0.000000   0.000000   0.000000   0.000000   0.000000
    40  H    0.000000   0.000000   0.000000   0.000000   0.000000   0.000000
    41  H    0.000000   0.000000   0.000000   0.000000   0.000000   0.000000
    42  H    0.000000   0.000000   0.000001   0.000000   0.000000   0.000000
    43  H    0.000000   0.000000   0.000000   0.000000   0.000000   0.000000
    44  H    0.000000   0.000000   0.000000   0.000000   0.000000   0.000000
    45  H    0.000000   0.000000   0.000000   0.000000   0.000000   0.000000
    46  H    0.000000   0.000000   0.000000   0.000000   0.000000   0.000000
              13         14         15         16         17         18
     1  F    0.000000  -0.003656   0.005053   0.000040  -0.000117   0.000000
     2  H    0.000133   0.002256   0.000175   0.004584  -0.031043   0.372413
     3  H   -0.000338   0.000097  -0.001516  -0.004843  -0.061699   0.333818
     4  H   -0.000001  -0.039506   0.003502   0.000383   0.356777  -0.028090
     5  H    0.000001  -0.051508  -0.001399  -0.000637   0.346229  -0.055885
     6  H    0.004548   0.001426  -0.031870   0.367517   0.000152   0.004681
     7  H   -0.002486   0.003107  -0.048178   0.318787  -0.000277  -0.003757
     8  H    0.000006  -0.045999   0.360531  -0.067872  -0.000576  -0.001873
     9  H   -0.000003  -0.026228   0.376908  -0.032617   0.003203   0.000207
    10  C    0.368036   0.000081   0.004648  -0.086406   0.004810  -0.080583
    11  H   -0.022526   0.000008  -0.000126   0.004818   0.000131  -0.002802
    12  H   -0.040188  -0.000001  -0.000275  -0.006413  -0.000299  -0.007013
    13  H    0.529365   0.000007   0.000122  -0.001729  -0.000136   0.004965
    14  N    0.000007   7.189969   0.277728  -0.063101   0.294772  -0.049034
    15  C    0.000122   0.277728   5.212621   0.236126  -0.070381  -0.015041
    16  C   -0.001729  -0.063101   0.236126   5.302500  -0.008799  -0.084687
    17  C   -0.000136   0.294772  -0.070381  -0.008799   5.185429   0.255762
    18  C    0.004965  -0.049034  -0.015041  -0.084687   0.255762   5.298950
    19  N   -0.034395  -0.003416  -0.036552   0.288677  -0.051788   0.272643
    20  C    0.000000  -0.000077  -0.000003   0.000000  -0.000078   0.000000
    21  H    0.000000  -0.000001   0.000000   0.000000   0.000005   0.000000
    22  H    0.000000  -0.000001   0.000001   0.000000   0.000094   0.000000
    23  O    0.000000  -0.001690  -0.000040   0.000026  -0.001645  -0.000147
    24  O    0.000000   0.000000   0.000000   0.000000   0.000000   0.000000
    25  O    0.000000   0.000000   0.000000   0.000000   0.000000   0.000000
    26  O    0.000000   0.000000   0.000000   0.000000   0.000000   0.000000
    27  N    0.000000  -0.000004   0.000000   0.000000   0.000000   0.000000
    28  C    0.000000  -0.094614   0.002428   0.000336  -0.003933   0.000298
    29  C    0.000000   0.005819  -0.000061   0.000001   0.000006  -0.000002
    30  C    0.000000  -0.000438  -0.000019   0.000000  -0.000001   0.000000
    31  C    0.000000  -0.000009   0.000000   0.000000   0.000002   0.000000
    32  C    0.000000   0.000000   0.000000   0.000000   0.000000   0.000000
    33  C    0.000000   0.000000   0.000000   0.000000   0.000000   0.000000
    34  C    0.000000   0.000000   0.000000   0.000000   0.000000   0.000000
    35  C    0.000000   0.004183   0.000368   0.000005  -0.000029   0.000001
    36  C    0.000000   0.356382  -0.065081   0.002904  -0.067871   0.003475
    37  C    0.000000   0.000001   0.000000   0.000000   0.000000   0.000000
    38  C    0.000000  -0.093855  -0.001403   0.000047  -0.000516  -0.000162
    39  C    0.000000   0.000000   0.000000   0.000000   0.000000   0.000000
    40  H    0.000000   0.000000   0.000000   0.000000   0.000000   0.000000
    41  H    0.000000   0.000000   0.000000   0.000000   0.000000   0.000000
    42  H    0.000000  -0.000006   0.000001   0.000000   0.000001   0.000000
    43  H    0.000000   0.000000   0.000000   0.000000   0.000000   0.000000
    44  H    0.000000   0.000000   0.000000   0.000000   0.000000   0.000000
    45  H    0.000000  -0.000001   0.000001   0.000000   0.000000   0.000000
    46  H    0.000000   0.000000   0.000000   0.000000   0.000000   0.000000
              19         20         21         22         23         24
     1  F    0.000000   0.000000   0.000000   0.000000   0.000000   0.000000
     2  H   -0.032263   0.000000   0.000000  -0.000001  -0.000002   0.000000
     3  H   -0.053198   0.000000   0.000000   0.000000  -0.000001   0.000000
     4  H    0.001228   0.000853  -0.000060  -0.000152   0.009936   0.000000
     5  H    0.002519  -0.000007   0.000000   0.000000   0.000053   0.000000
     6  H   -0.040444   0.000000   0.000000   0.000000   0.000007   0.000000
     7  H   -0.052916   0.000000   0.000000   0.000000   0.000000   0.000000
     8  H    0.000485   0.000000   0.000000   0.000000   0.000000   0.000000
     9  H    0.001659   0.000000   0.000000   0.000000  -0.000004   0.000000
    10  C    0.309070   0.000000   0.000000   0.000000   0.000000   0.000000
    11  H   -0.033979   0.000000   0.000000   0.000000   0.000000   0.000000
    12  H   -0.050033   0.000000   0.000000   0.000000   0.000000   0.000000
    13  H   -0.034395   0.000000   0.000000   0.000000   0.000000   0.000000
    14  N   -0.003416  -0.000077  -0.000001  -0.000001  -0.001690   0.000000
    15  C   -0.036552  -0.000003   0.000000   0.000001  -0.000040   0.000000
    16  C    0.288677   0.000000   0.000000   0.000000   0.000026   0.000000
    17  C   -0.051788  -0.000078   0.000005   0.000094  -0.001645   0.000000
    18  C    0.272643   0.000000   0.000000   0.000000  -0.000147   0.000000
    19  N    7.010196   0.000003   0.000001   0.000000   0.000004   0.000000
    20  C    0.000003   5.222812   0.375944   0.338527   0.256582   0.000000
    21  H    0.000001   0.375944   0.487080  -0.028004  -0.025613   0.000000
    22  H    0.000000   0.338527  -0.028004   0.557634  -0.035365   0.000000
    23  O    0.000004   0.256582  -0.025613  -0.035365   8.231398   0.000000
    24  O    0.000000   0.000000   0.000000   0.000000   0.000000   8.075842
    25  O    0.000000   0.000000   0.000000   0.000000   0.000000  -0.001160
    26  O    0.000000   0.000000   0.000000   0.000000   0.000000  -0.000001
    27  N    0.000000  -0.053661   0.002473  -0.001416  -0.006740  -0.000023
    28  C    0.000089  -0.086457   0.004044  -0.002960   0.284618   0.000001
    29  C    0.000000  -0.011454  -0.000397   0.004510  -0.074056   0.003610
    30  C    0.000000   0.000725   0.000006  -0.000178   0.003468  -0.121925
    31  C    0.000000   0.197219  -0.042688  -0.057352  -0.048036   0.000000
    32  C    0.000000   0.002564  -0.000047  -0.000184  -0.000104   0.003599
    33  C    0.000000  -0.000146   0.000001  -0.000001   0.000000  -0.117689
    34  C    0.000000  -0.000005   0.000000   0.000000   0.000000   0.637961
    35  C    0.000000   0.000017   0.000000  -0.000006  -0.000250   0.004008
    36  C   -0.000319   0.001889   0.000005   0.000759  -0.063947  -0.000004
    37  C    0.000000  -0.083730  -0.001106   0.004313  -0.001903   0.000000
    38  C   -0.000007  -0.000070   0.000002  -0.000007   0.002660   0.000527
    39  C    0.000000   0.000000   0.000000   0.000000   0.000000  -0.005042
    40  H    0.000000  -0.029166  -0.000680   0.000866   0.001747   0.000000
    41  H    0.000000   0.000102  -0.000002  -0.000006   0.000000  -0.000003
    42  H    0.000000   0.000000   0.000000   0.000000   0.000000   0.013185
    43  H    0.000000   0.000673   0.002064  -0.000045  -0.000012   0.000000
    44  H    0.000000   0.003753  -0.000019  -0.000061   0.000052   0.000000
    45  H    0.000000  -0.003645  -0.000395   0.000197   0.007535   0.000000
    46  H    0.000000   0.000000   0.000000   0.000000   0.000000   0.000312
              25         26         27         28         29         30
     1  F    0.000000   0.000000   0.000000   0.002878  -0.000224   0.002963
     2  H    0.000000   0.000000   0.000000  -0.000009   0.000000   0.000000
     3  H    0.000000   0.000000   0.000000   0.000001   0.000000   0.000000
     4  H    0.000000   0.000000   0.000001   0.005638   0.000039  -0.000005
     5  H    0.000000   0.000000   0.000000  -0.000571   0.000052  -0.000008
     6  H    0.000000   0.000000   0.000000  -0.000053   0.000000   0.000000
     7  H    0.000000   0.000000   0.000000  -0.000002   0.000000   0.000000
     8  H    0.000000   0.000000   0.000000  -0.000363   0.000004  -0.000001
     9  H    0.000000   0.000000   0.000000   0.000724  -0.000008  -0.000005
    10  C    0.000000   0.000000   0.000000  -0.000001   0.000000   0.000000
    11  H    0.000000   0.000000   0.000000   0.000000   0.000000   0.000000
    12  H    0.000000   0.000000   0.000000   0.000000   0.000000   0.000000
    13  H    0.000000   0.000000   0.000000   0.000000   0.000000   0.000000
    14  N    0.000000   0.000000  -0.000004  -0.094614   0.005819  -0.000438
    15  C    0.000000   0.000000   0.000000   0.002428  -0.000061  -0.000019
    16  C    0.000000   0.000000   0.000000   0.000336   0.000001   0.000000
    17  C    0.000000   0.000000   0.000000  -0.003933   0.000006  -0.000001
    18  C    0.000000   0.000000   0.000000   0.000298  -0.000002   0.000000
    19  N    0.000000   0.000000   0.000000   0.000089   0.000000   0.000000
    20  C    0.000000   0.000000  -0.053661  -0.086457  -0.011454   0.000725
    21  H    0.000000   0.000000   0.002473   0.004044  -0.000397   0.000006
    22  H    0.000000   0.000000  -0.001416  -0.002960   0.004510  -0.000178
    23  O    0.000000   0.000000  -0.006740   0.284618  -0.074056   0.003468
    24  O   -0.001160  -0.000001  -0.000023   0.000001   0.003610  -0.121925
    25  O    8.234704  -0.064221  -0.000001   0.000000  -0.000003   0.000110
    26  O   -0.064221   8.149228   0.000093   0.000000   0.000002  -0.000018
    27  N   -0.000001   0.000093   7.501290  -0.054473   0.172920  -0.033372
    28  C    0.000000   0.000000  -0.054473   5.455891   0.086327   0.020947
    29  C   -0.000003   0.000002   0.172920   0.086327   5.492154   0.203893
    30  C    0.000110  -0.000018  -0.033372   0.020947   0.203893   6.071022
    31  C    0.000000   0.000002   0.227675  -0.022870  -0.051155   0.000981
    32  C    0.003280   0.004410   0.248266   0.001441  -0.067453  -0.011758
    33  C   -0.093706  -0.116665  -0.013895  -0.000671  -0.023636  -0.169913
    34  C    0.001892   0.002136  -0.035946   0.005752  -0.000971  -0.023104
    35  C    0.000000   0.000000   0.005645  -0.040072  -0.060214   0.218026
    36  C    0.000000   0.000000   0.004860   0.149117  -0.026192  -0.043024
    37  C    0.000000   0.000000  -0.062124   0.000143   0.002736  -0.000069
    38  C    0.000000   0.000000  -0.000492  -0.042513  -0.043565  -0.012392
    39  C    0.218563   0.521604   0.004827  -0.000005  -0.000629   0.005571
    40  H    0.000000  -0.000001  -0.037487   0.000746   0.002582  -0.000046
    41  H    0.000221   0.018521  -0.035465  -0.000086   0.003075  -0.000410
    42  H    0.000000   0.000000  -0.000005  -0.000661   0.004159  -0.055450
    43  H    0.000000   0.000000   0.002817   0.000020  -0.000080   0.000000
    44  H    0.000000   0.000000  -0.001405  -0.000091  -0.000171   0.000009
    45  H    0.000000   0.000000  -0.000784   0.000995   0.000342  -0.000020
    46  H    0.237634   0.005268   0.000000   0.000000   0.000000   0.000008
              31         32         33         34         35         36
     1  F    0.000000   0.000000   0.000000  -0.000004  -0.063526  -0.062515
     2  H    0.000000   0.000000   0.000000   0.000000   0.000000  -0.000050
     3  H    0.000000   0.000000   0.000000   0.000000   0.000000  -0.000104
     4  H    0.000073   0.000000   0.000000   0.000000   0.000029  -0.012950
     5  H    0.000000   0.000000   0.000000   0.000000  -0.000030  -0.002032
     6  H    0.000000   0.000000   0.000000   0.000000   0.000000   0.000144
     7  H    0.000000   0.000000   0.000000   0.000000   0.000000  -0.000060
     8  H    0.000000   0.000000   0.000000   0.000000  -0.000008  -0.000505
     9  H    0.000000   0.000000   0.000000   0.000000  -0.000060  -0.002189
    10  C    0.000000   0.000000   0.000000   0.000000   0.000000   0.000006
    11  H    0.000000   0.000000   0.000000   0.000000   0.000000   0.000000
    12  H    0.000000   0.000000   0.000000   0.000000   0.000000   0.000000
    13  H    0.000000   0.000000   0.000000   0.000000   0.000000   0.000000
    14  N   -0.000009   0.000000   0.000000   0.000000   0.004183   0.356382
    15  C    0.000000   0.000000   0.000000   0.000000   0.000368  -0.065081
[...]
    44  H    0.000000   0.003732  -0.000029  -0.000057   0.000083   0.000000
    45  H    0.000000  -0.004680  -0.000506   0.000321   0.012157   0.000000
    46  H    0.000000   0.000000   0.000000   0.000000   0.000000   0.000208
              25         26         27         28         29         30
     1  F    0.000000   0.000000   0.000000   0.002589  -0.000228   0.002904
     2  H    0.000000   0.000000   0.000000   0.000002   0.000000   0.000000
     3  H    0.000000   0.000000   0.000000  -0.000020   0.000000   0.000000
     4  H    0.000000   0.000000   0.000000   0.001159   0.000023  -0.000001
     5  H    0.000000   0.000000   0.000000   0.001085  -0.000007  -0.000013
     6  H    0.000000   0.000000   0.000000  -0.000019   0.000000   0.000000
     7  H    0.000000   0.000000   0.000000  -0.000001   0.000000   0.000000
     8  H    0.000000   0.000000   0.000000  -0.000218   0.000004  -0.000002
     9  H    0.000000   0.000000   0.000000   0.000746  -0.000003  -0.000007
    10  C    0.000000   0.000000   0.000000   0.000000   0.000000   0.000000
    11  H    0.000000   0.000000   0.000000   0.000000   0.000000   0.000000
    12  H    0.000000   0.000000   0.000000   0.000000   0.000000   0.000000
    13  H    0.000000   0.000000   0.000000   0.000000   0.000000   0.000000
    14  N    0.000000   0.000000  -0.000003  -0.073843   0.005399  -0.000458
    15  C    0.000000   0.000000   0.000000   0.001606  -0.000092  -0.000021
    16  C    0.000000   0.000000   0.000000   0.000022   0.000001   0.000000
    17  C    0.000000   0.000000   0.000000  -0.001991   0.000470  -0.000010
    18  C    0.000000   0.000000   0.000000   0.000268   0.000006   0.000000
    19  N    0.000000   0.000000   0.000000  -0.000001   0.000000   0.000000
    20  C    0.000000   0.000000  -0.052377  -0.080324  -0.008624   0.000788
    21  H    0.000000   0.000000   0.002394   0.003617  -0.000290   0.000005
    22  H    0.000000   0.000000  -0.001134  -0.000571   0.004123  -0.000228
    23  O    0.000000   0.000000  -0.007098   0.263319  -0.063527   0.003575
    24  O   -0.000881  -0.000001  -0.000025   0.000004   0.003671  -0.125403
    25  O    8.229862  -0.061776  -0.000001   0.000000  -0.000003   0.000120
    26  O   -0.061776   8.147903   0.000103   0.000000   0.000002  -0.000017
    27  N   -0.000001   0.000103   7.476457  -0.055529   0.177264  -0.032468
    28  C    0.000000   0.000000  -0.055529   5.373980   0.136162   0.017804
    29  C   -0.000003   0.000002   0.177264   0.136162   5.441460   0.189971
    30  C    0.000120  -0.000017  -0.032468   0.017804   0.189971   6.115775
    31  C    0.000000   0.000003   0.232303  -0.016701  -0.052006   0.000879
    32  C    0.003325   0.003372   0.249877   0.001658  -0.065914  -0.014964
    33  C   -0.092688  -0.115054  -0.014374  -0.000780  -0.026441  -0.168518
    34  C    0.002109   0.001948  -0.036552   0.006204   0.004705  -0.027836
    35  C    0.000000   0.000000   0.006002  -0.055204  -0.057474   0.223678
    36  C    0.000000   0.000000   0.004629   0.181006  -0.008998  -0.048188
    37  C    0.000000   0.000000  -0.061709   0.000091   0.002513  -0.000106
    38  C    0.000000   0.000000  -0.000467   0.008007  -0.054807  -0.014254
    39  C    0.222747   0.517455   0.004879  -0.000004  -0.000620   0.005960
    40  H    0.000000  -0.000002  -0.034796   0.000550   0.002592  -0.000031
    41  H    0.000283   0.022653  -0.033914  -0.000071   0.003052  -0.000494
    42  H    0.000000   0.000000  -0.000007  -0.000625   0.004440  -0.057019
    43  H    0.000000   0.000000   0.002820   0.000013  -0.000060   0.000000
    44  H    0.000000   0.000000  -0.000977  -0.000094  -0.000172   0.000008
    45  H    0.000000   0.000000  -0.000858   0.000863   0.000055  -0.000011
    46  H    0.236967   0.004460   0.000000   0.000000   0.000000   0.000005
              31         32         33         34         35         36
     1  F    0.000000   0.000000   0.000000  -0.000004  -0.059738  -0.058516
     2  H    0.000000   0.000000   0.000000   0.000000   0.000000  -0.000062
     3  H    0.000000   0.000000   0.000000   0.000000   0.000000   0.000231
     4  H    0.000013   0.000000   0.000000   0.000000   0.000003  -0.001221
     5  H    0.000002   0.000000   0.000000   0.000000  -0.000004  -0.002198
     6  H    0.000000   0.000000   0.000000   0.000000   0.000000   0.000176
     7  H    0.000000   0.000000   0.000000   0.000000   0.000000  -0.000072
     8  H    0.000000   0.000000   0.000000   0.000000   0.000015  -0.001294
     9  H    0.000000   0.000000   0.000000   0.000000  -0.000147  -0.001023
    10  C    0.000000   0.000000   0.000000   0.000000   0.000000   0.000003
    11  H    0.000000   0.000000   0.000000   0.000000   0.000000   0.000000
    12  H    0.000000   0.000000   0.000000   0.000000   0.000000  -0.000001
    13  H    0.000000   0.000000   0.000000   0.000000   0.000000   0.000000
    14  N   -0.000005   0.000000   0.000000  -0.000001   0.004473   0.300131
    15  C    0.000000   0.000000   0.000000   0.000000   0.000579  -0.062953
    16  C    0.000000   0.000000   0.000000   0.000000   0.000007   0.003023
    17  C    0.000037   0.000000   0.000000   0.000000  -0.000092  -0.059756
    18  C    0.000000   0.000000   0.000000   0.000000   0.000001   0.002526
    19  N    0.000000   0.000000   0.000000   0.000000   0.000000   0.000003
    20  C    0.207684   0.002203  -0.000134  -0.000004   0.000017   0.001003
    21  H   -0.042110  -0.000046   0.000000   0.000000   0.000000  -0.000026
    22  H   -0.055952  -0.000111  -0.000001   0.000000  -0.000005   0.000866
    23  O   -0.043170  -0.000088   0.000000   0.000001  -0.000264  -0.058125
    24  O    0.000000   0.003331  -0.113432   0.638178   0.003710  -0.000005
    25  O    0.000000   0.003325  -0.092688   0.002109   0.000000   0.000000
    26  O    0.000003   0.003372  -0.115054   0.001948   0.000000   0.000000
    27  N    0.232303   0.249877  -0.014374  -0.036552   0.006002   0.004629
    28  C   -0.016701   0.001658  -0.000780   0.006204  -0.055204   0.181006
    29  C   -0.052006  -0.065914  -0.026441   0.004705  -0.057474  -0.008998
    30  C    0.000879  -0.014964  -0.168518  -0.027836   0.223678  -0.048188
    31  C    5.424223  -0.051436   0.001909   0.000045  -0.000085  -0.000580
    32  C   -0.051436   5.094019   0.317980  -0.023010  -0.001256  -0.000088
    33  C    0.001909   0.317980   6.452601  -0.062088   0.015159  -0.000007
    34  C    0.000045  -0.023010  -0.062088   5.192854  -0.075271  -0.001008
    35  C   -0.000085  -0.001256   0.015159  -0.075271   5.726194  -0.072215
    36  C   -0.000580  -0.000088  -0.000007  -0.001008  -0.072215   5.439896
    37  C    0.256920  -0.000478   0.000019  -0.000004   0.000004  -0.000036
    38  C    0.000001   0.000014   0.000019   0.009394   0.176366   0.119217
    39  C   -0.000045  -0.097659   0.063206  -0.037618   0.000004   0.000000
    40  H    0.358600  -0.001161   0.000261  -0.000008   0.000001   0.000013
    41  H   -0.001421   0.364328  -0.058997   0.002763   0.000000   0.000000
    42  H    0.000001  -0.000058   0.001323   0.000332   0.372486   0.005142
    43  H   -0.038406  -0.000001  -0.000001   0.000000   0.000000   0.000001
    44  H   -0.036455   0.002437  -0.000059  -0.000002   0.000000   0.000000
    45  H   -0.043400  -0.000074   0.000008  -0.000002   0.000005   0.000011
    46  H    0.000000  -0.000292   0.011851  -0.000058   0.000000   0.000000
              37         38         39         40         41         42
     1  F    0.000000   0.303125   0.000000   0.000000   0.000000  -0.001931
     2  H    0.000000  -0.000001   0.000000   0.000000   0.000000   0.000000
     3  H    0.000000  -0.000004   0.000000   0.000000   0.000000   0.000000
     4  H   -0.000001  -0.000161   0.000000   0.000000   0.000000   0.000000
     5  H    0.000001   0.000590   0.000000   0.000000   0.000000   0.000000
     6  H    0.000000  -0.000025   0.000000   0.000000   0.000000   0.000000
     7  H    0.000000   0.000001   0.000000   0.000000   0.000000   0.000000
     8  H    0.000000   0.001059   0.000000   0.000000   0.000000   0.000001
     9  H    0.000000  -0.000844   0.000000   0.000000   0.000000   0.000001
    10  C    0.000000   0.000000   0.000000   0.000000   0.000000   0.000000
    11  H    0.000000   0.000000   0.000000   0.000000   0.000000   0.000000
    12  H    0.000000   0.000000   0.000000   0.000000   0.000000   0.000000
    13  H    0.000000   0.000000   0.000000   0.000000   0.000000   0.000000
    14  N    0.000000  -0.079981   0.000000   0.000000   0.000000  -0.000007
    15  C    0.000000  -0.000236   0.000000   0.000000   0.000000  -0.000001
    16  C    0.000000   0.000385   0.000000   0.000000   0.000000   0.000000
    17  C   -0.000001   0.001117   0.000000   0.000000   0.000000   0.000000
    18  C    0.000000  -0.000039   0.000000   0.000000   0.000000   0.000000
    19  N    0.000000  -0.000005   0.000000   0.000000   0.000000   0.000000
    20  C   -0.086929  -0.000091   0.000001  -0.028082   0.000081   0.000000
    21  H   -0.000495   0.000002   0.000000  -0.000520  -0.000001   0.000000
    22  H    0.004161  -0.000001   0.000000   0.000942  -0.000004   0.000000
    23  O   -0.004386   0.002337   0.000000   0.001543   0.000000   0.000000
    24  O    0.000000   0.000649  -0.004127   0.000000  -0.000002   0.015863
    25  O    0.000000   0.000000   0.222747   0.000000   0.000283   0.000000
    26  O    0.000000   0.000000   0.517455  -0.000002   0.022653   0.000000
    27  N   -0.061709  -0.000467   0.004879  -0.034796  -0.033914  -0.000007
    28  C    0.000091   0.008007  -0.000004   0.000550  -0.000071  -0.000625
    29  C    0.002513  -0.054807  -0.000620   0.002592   0.003052   0.004440
    30  C   -0.000106  -0.014254   0.005960  -0.000031  -0.000494  -0.057019
    31  C    0.256920   0.000001  -0.000045   0.358600  -0.001421   0.000001
    32  C   -0.000478   0.000014  -0.097659  -0.001161   0.364328  -0.000058
    33  C    0.000019   0.000019   0.063206   0.000261  -0.058997   0.001323
    34  C   -0.000004   0.009394  -0.037618  -0.000008   0.002763   0.000332
    35  C    0.000004   0.176366   0.000004   0.000001   0.000000   0.372486
    36  C   -0.000036   0.119217   0.000000   0.000013   0.000000   0.005142
    37  C    5.384801  -0.000001   0.000003  -0.042513   0.000024   0.000000
    38  C   -0.000001   5.275302   0.000000   0.000000   0.000000  -0.035892
    39  C    0.000003   0.000000   4.691655  -0.000007   0.000665   0.000004
    40  H   -0.042513   0.000000  -0.000007   0.510462   0.002598   0.000000
    41  H    0.000024   0.000000   0.000665   0.002598   0.444482   0.000000
    42  H    0.000000  -0.035892   0.000004   0.000000   0.000000   0.458963
    43  H    0.350087   0.000000   0.000000  -0.000951  -0.000009   0.000000
    44  H    0.365448   0.000000   0.000000  -0.001253   0.000377   0.000000
    45  H    0.361355  -0.000004   0.000000   0.003369   0.000000   0.000000
    46  H    0.000000   0.000000  -0.028771   0.000000  -0.000016   0.000000
              43         44         45         46
     1  F    0.000000   0.000000   0.000000   0.000000
     2  H    0.000000   0.000000   0.000000   0.000000
     3  H    0.000000   0.000000   0.000000   0.000000
     4  H    0.000000   0.000000   0.000007   0.000000
     5  H    0.000000   0.000000   0.000000   0.000000
     6  H    0.000000   0.000000   0.000000   0.000000
     7  H    0.000000   0.000000   0.000000   0.000000
     8  H    0.000000   0.000000   0.000000   0.000000
     9  H    0.000000   0.000000   0.000000   0.000000
    10  C    0.000000   0.000000   0.000000   0.000000
    11  H    0.000000   0.000000   0.000000   0.000000
    12  H    0.000000   0.000000   0.000000   0.000000
    13  H    0.000000   0.000000   0.000000   0.000000
    14  N    0.000000   0.000000   0.000002   0.000000
    15  C    0.000000   0.000000   0.000000   0.000000
    16  C    0.000000   0.000000   0.000000   0.000000
    17  C    0.000000   0.000000  -0.000004   0.000000
    18  C    0.000000   0.000000   0.000000   0.000000
    19  N    0.000000   0.000000   0.000000   0.000000
    20  C    0.001052   0.003732  -0.004680   0.000000
    21  H    0.001957  -0.000029  -0.000506   0.000000
    22  H   -0.000048  -0.000057   0.000321   0.000000
    23  O    0.000006   0.000083   0.012157   0.000000
    24  O    0.000000   0.000000   0.000000   0.000208
    25  O    0.000000   0.000000   0.000000   0.236967
    26  O    0.000000   0.000000   0.000000   0.004460
    27  N    0.002820  -0.000977  -0.000858   0.000000
    28  C    0.000013  -0.000094   0.000863   0.000000
    29  C   -0.000060  -0.000172   0.000055   0.000000
    30  C    0.000000   0.000008  -0.000011   0.000005
    31  C   -0.038406  -0.036455  -0.043400   0.000000
    32  C   -0.000001   0.002437  -0.000074  -0.000292
    33  C   -0.000001  -0.000059   0.000008   0.011851
    34  C    0.000000  -0.000002  -0.000002  -0.000058
    35  C    0.000000   0.000000   0.000005   0.000000
    36  C    0.000001   0.000000   0.000011   0.000000
    37  C    0.350087   0.365448   0.361355   0.000000
    38  C    0.000000   0.000000  -0.000004   0.000000
    39  C    0.000000   0.000000   0.000000  -0.028771
    40  H   -0.000951  -0.001253   0.003369   0.000000
    41  H   -0.000009   0.000377   0.000000  -0.000016
    42  H    0.000000   0.000000   0.000000   0.000000
    43  H    0.534503  -0.023485  -0.023326   0.000000
    44  H   -0.023485   0.499216  -0.021686   0.000000
    45  H   -0.023326  -0.021686   0.487723   0.000000
    46  H    0.000000   0.000000   0.000000   0.416719
 Mulliken charges:
               1
     1  F   -0.292936
     2  H    0.201188
     3  H    0.177731
     4  H    0.218191
     5  H    0.204722
     6  H    0.211612
     7  H    0.199274
     8  H    0.210165
     9  H    0.211228
    10  C   -0.387821
    11  H    0.198268
    12  H    0.161240
    13  H    0.196321
    14  N   -0.706622
    15  C   -0.202088
    16  C   -0.224327
    17  C   -0.190137
    18  C   -0.207851
    19  N   -0.497149
    20  C   -0.139862
    21  H    0.226920
    22  H    0.221099
    23  O   -0.539251
    24  O   -0.497645
    25  O   -0.540063
    26  O   -0.521048
    27  N   -0.824441
    28  C    0.285242
    29  C    0.363355
    30  C   -0.071423
    31  C   -0.100848
    32  C    0.214092
    33  C   -0.211762
    34  C    0.404930
    35  C   -0.206951
    36  C    0.318495
    37  C   -0.528768
    38  C    0.289228
    39  C    0.662274
    40  H    0.228393
    41  H    0.253623
    42  H    0.236985
    43  H    0.195848
    44  H    0.212966
    45  H    0.228677
    46  H    0.358926
 Sum of Mulliken charges =   0.00000
 Mulliken charges with hydrogens summed into heavy atoms:
               1
     1  F   -0.292936
    10  C    0.168008
    14  N   -0.706622
    15  C    0.219304
    16  C    0.186559
    17  C    0.232776
    18  C    0.171068
    19  N   -0.497149
    20  C    0.308157
    23  O   -0.539251
    24  O   -0.497645
    25  O   -0.181137
    26  O   -0.521048
    27  N   -0.824441
    28  C    0.285242
    29  C    0.363355
    30  C   -0.071423
    31  C    0.127545
    32  C    0.467715
    33  C   -0.211762
    34  C    0.404930
    35  C    0.030034
    36  C    0.318495
    37  C    0.108723
    38  C    0.289228
    39  C    0.662274
 Electronic spatial extent (au):  <R**2>=          11276.7377
 Charge=              0.0000 electrons
 Dipole moment (field-independent basis, Debye):
    X=              4.0754    Y=              5.5309    Z=             -0.5856  Tot=              6.8951
 Quadrupole moment (field-independent basis, Debye-Ang):
   XX=           -155.0422   YY=           -148.7500   ZZ=           -147.2808
   XY=            -12.8163   XZ=             -1.4190   YZ=             -3.8668
 Traceless Quadrupole moment (field-independent basis, Debye-Ang):
   XX=             -4.6845   YY=              1.6077   ZZ=              3.0769
   XY=            -12.8163   XZ=             -1.4190   YZ=             -3.8668
 Octapole moment (field-independent basis, Debye-Ang**2):
  XXX=             51.4575  YYY=             62.3602  ZZZ=              0.9620  XYY=              4.7778
  XXY=            -63.3545  XXZ=             -2.7557  XZZ=              3.8218  YZZ=             -1.1564
  YYZ=             -4.8248  XYZ=            -14.9181
 Hexadecapole moment (field-independent basis, Debye-Ang**3):
 XXXX=         -10821.3724 YYYY=          -2396.1488 ZZZZ=           -482.5848 XXXY=            229.4192
 XXXZ=            -33.3282 YYYX=           -122.8712 YYYZ=            -18.2203 ZZZX=             15.6439
 ZZZY=            -10.2651 XXYY=          -2461.9850 XXZZ=          -1924.9470 YYZZ=           -480.0198
 XXYZ=            -36.5504 YYXZ=             -0.9517 ZZXY=              5.6016
 N-N= 2.414526986492D+03 E-N=-7.759279059191D+03  KE= 1.245615287476D+03
 1\1\GINC-NODE036\FOpt\RB3LYP\3-21G\C18H20F1N3O4\SUPERCOMPUTO1\06-Jul-2
 020\0\\# opt b3lyp/3-21g geom=connectivity\\Title Card Required\\0,1\F
 ,5.5869839562,10.0227697726,5.9823535857\H,9.3597132507,5.7489883887,5
 .7273884074\H,8.9207181183,7.4402725094,5.3876076829\H,7.1038640388,5.
 4060232189,6.7826704119\H,8.0326468878,6.6914120482,7.57198802\H,5.809
 1560855,5.5590776073,4.5885822683\H,6.1628039531,6.4774848368,3.113873
 1845\H,6.7561017696,8.4771757834,4.5241957281\H,5.1016394684,7.9291659
 13,4.8327122878\C,8.6661497841,6.3119888161,3.0511659432\H,9.659372113
 6,5.8565619773,3.1365182706\H,8.8032972436,7.4034904433,2.9241014384\H
 ,8.1845446366,5.9113081212,2.1541541272\N,6.4568390114,7.4151506316,6.
 3703372879\C,6.1551290658,7.6575132158,4.931181779\C,6.4372173643,6.35
 18428282,4.1659933617\C,7.5173949393,6.4098544005,6.6513310362\C,8.520
 9933692,6.4144931821,5.4894880569\N,7.8710740294,5.9477876179,4.238369
 1904\C,6.1517802811,5.8883017341,10.2709805539\H,6.4130533926,4.830856
 6616,10.3156486544\H,6.9789860821,6.5063259399,10.6385358746\O,5.89732
 90158,6.172657037,8.8507164086\O,3.3287646809,11.509930246,10.18338703
 66\O,2.4006370352,11.4540283493,12.7442701086\O,2.6636668404,9.5288251
 16,13.9406141303\N,4.5534584093,7.6160931544,10.8718968099\C,5.5040874
 857,7.5061992524,8.6285397093\C,4.829787258,8.2198146846,9.6324071937\
 C,4.3997447661,9.5361188655,9.4072747783\C,4.8740360286,6.173348963,11
 .0702613219\C,3.9101947512,8.3253217744,11.8322659801\C,3.4873214214,9
 .6192570168,11.6908411674\C,3.6890763881,10.3431107888,10.432910164\C,
 4.652297523,10.1139563889,8.1608019411\C,5.7835257704,8.0842183315,7.3
 729833543\C,3.7130771468,5.2837437572,10.5946396229\C,5.3201826536,9.4
 139266915,7.1912413126\C,2.8295490593,10.1597138113,12.8880088323\H,5.
 0689596823,6.0284293754,12.1373926187\H,3.7234316229,7.8256081523,12.7
 764354838\H,4.3275960767,11.1319012328,7.9945903005\H,3.9230909741,4.2
 367812222,10.8396831012\H,2.7782343058,5.5789676128,11.0787317918\H,3.
 6092427438,5.378198538,9.5114394261\H,1.9723895192,11.7194739897,13.60
 5040255\\Version=ES64L-G09RevD.01\State=1-A\HF=-1256.0220861\RMSD=6.05
 0e-09\RMSF=4.774e-06\Dipole=1.2499555,-2.3917973,-0.2754646\Quadrupole
 =1.3109845,-6.6182403,5.3072557,3.2059215,1.917977,-7.6660289\PG=C01 [
 X(C18H20F1N3O4)]\\@


 IT WAS A GAME, A VERY INTERESTING GAME ONE COULD
 PLAY.  WHENEVER ONE SOLVED ONE OF THE LITTLE PROBLEMS,
 ONE COULD WRITE A PAPER ABOUT IT.  IT WAS VERY EASY IN
 THOSE DAYS FOR ANY SECOND-RATE PHYSICIST TO DO
 FIRST-RATE WORK.  THERE HAS NOT BEEN SUCH A GLORIOUS
 TIME SINCE.  IT IS VERY DIFFICULT NOW FOR A FIRST-RATE
 PHYSICIST TO DO SECOND-RATE WORK.
     P.A.M. DIRAC, ON THE EARLY DAYS OF QUANTUM MECHANICS
                   DIRECTIONS IN PHYSICS, 1978, P. 7
 Job cpu time:       0 days  3 hours 24 minutes  5.3 seconds.
 File lengths (MBytes):  RWF=     50 Int=      0 D2E=      0 Chk=      8 Scr=      1
 Normal termination of Gaussian 09 at Mon Jul  6 12:36:10 2020.
