 Entering Gaussian System, Link 0=g09
 Input=nitrofurazona.gjf
 Output=nitrofurazona.log
 Initial command:
 /usr/local/cluster_programs/g09/l1.exe "/tmp/scratch/63916.prometeo/Gau-27690.inp" -scrdir="/tmp/scratch/63916.prometeo/"
 Entering Link 1 = /usr/local/cluster_programs/g09/l1.exe PID=     27691.
  
 Copyright (c) 1988,1990,1992,1993,1995,1998,2003,2009,2013,
            Gaussian, Inc.  All Rights Reserved.
  
 This is part of the Gaussian(R) 09 program.  It is based on
 the Gaussian(R) 03 system (copyright 2003, Gaussian, Inc.),
 the Gaussian(R) 98 system (copyright 1998, Gaussian, Inc.),
 the Gaussian(R) 94 system (copyright 1995, Gaussian, Inc.),
 the Gaussian 92(TM) system (copyright 1992, Gaussian, Inc.),
 the Gaussian 90(TM) system (copyright 1990, Gaussian, Inc.),
 the Gaussian 88(TM) system (copyright 1988, Gaussian, Inc.),
 the Gaussian 86(TM) system (copyright 1986, Carnegie Mellon
 University), and the Gaussian 82(TM) system (copyright 1983,
 Carnegie Mellon University). Gaussian is a federally registered
 trademark of Gaussian, Inc.
  
 This software contains proprietary and confidential information,
 including trade secrets, belonging to Gaussian, Inc.
  
 This software is provided under written license and may be
 used, copied, transmitted, or stored only in accord with that
 written license.
  
 The following legend is applicable only to US Government
 contracts under FAR:
  
                    RESTRICTED RIGHTS LEGEND
  
 Use, reproduction and disclosure by the US Government is
 subject to restrictions as set forth in subparagraphs (a)
 and (c) of the Commercial Computer Software - Restricted
 Rights clause in FAR 52.227-19.
  
 Gaussian, Inc.
 340 Quinnipiac St., Bldg. 40, Wallingford CT 06492
  
  
 ---------------------------------------------------------------
 Warning -- This program may not be used in any manner that
 competes with the business of Gaussian, Inc. or will provide
 assistance to any competitor of Gaussian, Inc.  The licensee
 of this program is prohibited from giving any competitor of
 Gaussian, Inc. access to this program.  By using this program,
 the user acknowledges that Gaussian, Inc. is engaged in the
 business of creating and licensing software in the field of
 computational chemistry and represents and warrants to the
 licensee that it is not a competitor of Gaussian, Inc. and that
 it will not use this program in any manner prohibited above.
 ---------------------------------------------------------------
  

 Cite this work as:
 Gaussian 09, Revision D.01,
 M. J. Frisch, G. W. Trucks, H. B. Schlegel, G. E. Scuseria, 
 M. A. Robb, J. R. Cheeseman, G. Scalmani, V. Barone, B. Mennucci, 
 G. A. Petersson, H. Nakatsuji, M. Caricato, X. Li, H. P. Hratchian, 
 A. F. Izmaylov, J. Bloino, G. Zheng, J. L. Sonnenberg, M. Hada, 
 M. Ehara, K. Toyota, R. Fukuda, J. Hasegawa, M. Ishida, T. Nakajima, 
 Y. Honda, O. Kitao, H. Nakai, T. Vreven, J. A. Montgomery, Jr., 
 J. E. Peralta, F. Ogliaro, M. Bearpark, J. J. Heyd, E. Brothers, 
 K. N. Kudin, V. N. Staroverov, T. Keith, R. Kobayashi, J. Normand, 
 K. Raghavachari, A. Rendell, J. C. Burant, S. S. Iyengar, J. Tomasi, 
 M. Cossi, N. Rega, J. M. Millam, M. Klene, J. E. Knox, J. B. Cross, 
 V. Bakken, C. Adamo, J. Jaramillo, R. Gomperts, R. E. Stratmann, 
 O. Yazyev, A. J. Austin, R. Cammi, C. Pomelli, J. W. Ochterski, 
 R. L. Martin, K. Morokuma, V. G. Zakrzewski, G. A. Voth, 
 P. Salvador, J. J. Dannenberg, S. Dapprich, A. D. Daniels, 
 O. Farkas, J. B. Foresman, J. V. Ortiz, J. Cioslowski, 
 and D. J. Fox, Gaussian, Inc., Wallingford CT, 2013.
 
 ******************************************
 Gaussian 09:  ES64L-G09RevD.01 24-Apr-2013
                 6-Jul-2020 
 ******************************************
 %nprocshared=20
 Will use up to   20 processors via shared memory.
 -----------------------------------
 # opt b3lyp/3-21g geom=connectivity
 -----------------------------------
 1/14=-1,18=20,19=15,26=3,38=1,57=2/1,3;
 2/9=110,12=2,17=6,18=5,40=1/2;
 3/5=5,11=2,16=1,25=1,30=1,71=1,74=-5/1,2,3;
 4//1;
 5/5=2,38=5/2;
 6/7=2,8=2,9=2,10=2,28=1/1;
 7//1,2,3,16;
 1/14=-1,18=20,19=15,26=3/3(2);
 2/9=110/2;
 99//99;
 2/9=110/2;
 3/5=5,11=2,16=1,25=1,30=1,71=1,74=-5/1,2,3;
 4/5=5,16=3,69=1/1;
 5/5=2,38=5/2;
 7//1,2,3,16;
 1/14=-1,18=20,19=15,26=3/3(-5);
 2/9=110/2;
 6/7=2,8=2,9=2,10=2,19=2,28=1/1;
 99/9=1/99;
 -------------------
 Title Card Required
 -------------------
 Symbolic Z-matrix:
 Charge =  0 Multiplicity = 1
 O(PDBName=O1,ResName=MOL,ResNum=1) 0     8.016     5.775    -5.265    L 
 O(PDBName=O2,ResName=MOL,ResNum=1) 0     4.643     6.899    -5.158    L 
 O(PDBName=O3,ResName=MOL,ResNum=1) 0     5.459     4.809    -5.395    L 
 O(PDBName=O4,ResName=MOL,ResNum=1) 0     13.537    8.647    -4.911    L 
 N(PDBName=N5,ResName=MOL,ResNum=1) 0     5.595     6.055    -5.242    L 
 N(PDBName=N6,ResName=MOL,ResNum=1) 0     11.416    6.957    -5.131    L 
 N(PDBName=N7,ResName=MOL,ResNum=1) 0     12.687    6.504    -5.17     L 
 N(PDBName=N8,ResName=MOL,ResNum=1) 0     14.984    6.879    -5.16     L 
 C(PDBName=C9,ResName=MOL,ResNum=1) 0     9.099     6.646    -5.172    L 
 C(PDBName=C10,ResName=MOL,ResNum=1) 0     8.657     7.949    -5.016    L 
 C(PDBName=C11,ResName=MOL,ResNum=1) 0     6.906     6.589    -5.164    L 
 C(PDBName=C12,ResName=MOL,ResNum=1) 0     7.257     7.912    -5.016    L 
 C(PDBName=C13,ResName=MOL,ResNum=1) 0     10.429    6.118    -5.253    L 
 C(PDBName=C14,ResName=MOL,ResNum=1) 0     13.741    7.451    -5.079    L 
 H(PDBName=H15,ResName=MOL,ResNum=1) 0     9.553     8.821    -4.927    L 
 H(PDBName=H16,ResName=MOL,ResNum=1) 0     6.309     8.738    -4.922    L 
 H(PDBName=H17,ResName=MOL,ResNum=1) 0     10.569    5.034    -5.398    L 
 H(PDBName=H18,ResName=MOL,ResNum=1) 0     12.875    5.514    -5.395    L 
 H(PDBName=H19,ResName=MOL,ResNum=1) 0     15.784    7.509    -5.153    L 
 H(PDBName=H20,ResName=MOL,ResNum=1) 0     15.142    5.907    -5.418    L 
 
 Center=     10.13290000      6.83565000     -5.16725000
 Residue   1 PDB Number     1_0 MOL charge    0.00000000 layers R        AvRTP=      0.00000000      0.00000000     90.00000000

 GradGradGradGradGradGradGradGradGradGradGradGradGradGradGradGradGradGrad
 Berny optimization.
 Initialization pass.
                           ----------------------------
                           !    Initial Parameters    !
                           ! (Angstroms and Degrees)  !
 --------------------------                            --------------------------
 ! Name  Definition              Value          Derivative Info.                !
 --------------------------------------------------------------------------------
 ! R1    R(1,9)                  1.3929         estimate D2E/DX2                !
 ! R2    R(1,11)                 1.3802         estimate D2E/DX2                !
 ! R3    R(2,5)                  1.275          estimate D2E/DX2                !
 ! R4    R(3,5)                  1.2627         estimate D2E/DX2                !
 ! R5    R(4,14)                 1.2248         estimate D2E/DX2                !
 ! R6    R(5,11)                 1.4177         estimate D2E/DX2                !
 ! R7    R(6,7)                  1.3499         estimate D2E/DX2                !
 ! R8    R(6,13)                 1.3011         estimate D2E/DX2                !
 ! R9    R(7,14)                 1.4199         estimate D2E/DX2                !
 ! R10   R(7,18)                 1.0325         estimate D2E/DX2                !
 ! R11   R(8,14)                 1.3707         estimate D2E/DX2                !
 ! R12   R(8,19)                 1.0183         estimate D2E/DX2                !
 ! R13   R(8,20)                 1.018          estimate D2E/DX2                !
 ! R14   R(9,10)                 1.3847         estimate D2E/DX2                !
 ! R15   R(9,13)                 1.4333         estimate D2E/DX2                !
 ! R16   R(10,12)                1.4005         estimate D2E/DX2                !
 ! R17   R(10,15)                1.2534         estimate D2E/DX2                !
 ! R18   R(11,12)                1.3767         estimate D2E/DX2                !
 ! R19   R(12,16)                1.2609         estimate D2E/DX2                !
 ! R20   R(13,17)                1.1026         estimate D2E/DX2                !
 ! A1    A(9,1,11)             104.5738         estimate D2E/DX2                !
 ! A2    A(2,5,3)              125.5036         estimate D2E/DX2                !
 ! A3    A(2,5,11)             115.9437         estimate D2E/DX2                !
 ! A4    A(3,5,11)             118.5509         estimate D2E/DX2                !
 ! A5    A(7,6,13)             119.6788         estimate D2E/DX2                !
 ! A6    A(6,7,14)             118.247          estimate D2E/DX2                !
 ! A7    A(6,7,18)             119.9675         estimate D2E/DX2                !
 ! A8    A(14,7,18)            121.2191         estimate D2E/DX2                !
 ! A9    A(14,8,19)            116.9908         estimate D2E/DX2                !
 ! A10   A(14,8,20)            123.6542         estimate D2E/DX2                !
 ! A11   A(19,8,20)            118.0687         estimate D2E/DX2                !
 ! A12   A(1,9,10)             110.3495         estimate D2E/DX2                !
 ! A13   A(1,9,13)             119.1674         estimate D2E/DX2                !
 ! A14   A(10,9,13)            130.4818         estimate D2E/DX2                !
 ! A15   A(9,10,12)            107.1109         estimate D2E/DX2                !
 ! A16   A(9,10,15)            115.7501         estimate D2E/DX2                !
 ! A17   A(12,10,15)           137.1352         estimate D2E/DX2                !
 ! A18   A(1,11,5)             121.1665         estimate D2E/DX2                !
 ! A19   A(1,11,12)            111.6897         estimate D2E/DX2                !
 ! A20   A(5,11,12)            127.1298         estimate D2E/DX2                !
 ! A21   A(10,12,11)           106.275          estimate D2E/DX2                !
 ! A22   A(10,12,16)           137.247          estimate D2E/DX2                !
 ! A23   A(11,12,16)           116.4779         estimate D2E/DX2                !
 ! A24   A(6,13,9)             117.456          estimate D2E/DX2                !
 ! A25   A(6,13,17)            123.3645         estimate D2E/DX2                !
 ! A26   A(9,13,17)            119.1725         estimate D2E/DX2                !
 ! A27   A(4,14,7)             122.4398         estimate D2E/DX2                !
 ! A28   A(4,14,8)             124.5148         estimate D2E/DX2                !
 ! A29   A(7,14,8)             113.0201         estimate D2E/DX2                !
 ! D1    D(11,1,9,10)            0.1397         estimate D2E/DX2                !
 ! D2    D(11,1,9,13)         -179.4798         estimate D2E/DX2                !
 ! D3    D(9,1,11,5)           178.8139         estimate D2E/DX2                !
 ! D4    D(9,1,11,12)            0.0824         estimate D2E/DX2                !
 ! D5    D(2,5,11,1)          -178.9165         estimate D2E/DX2                !
 ! D6    D(2,5,11,12)           -0.395          estimate D2E/DX2                !
 ! D7    D(3,5,11,1)             0.6232         estimate D2E/DX2                !
 ! D8    D(3,5,11,12)          179.1448         estimate D2E/DX2                !
 ! D9    D(13,6,7,14)          177.9183         estimate D2E/DX2                !
 ! D10   D(13,6,7,18)            6.4424         estimate D2E/DX2                !
 ! D11   D(7,6,13,9)           178.5125         estimate D2E/DX2                !
 ! D12   D(7,6,13,17)           -0.5218         estimate D2E/DX2                !
 ! D13   D(6,7,14,4)             3.1467         estimate D2E/DX2                !
 ! D14   D(6,7,14,8)          -178.6056         estimate D2E/DX2                !
 ! D15   D(18,7,14,4)          174.5109         estimate D2E/DX2                !
 ! D16   D(18,7,14,8)           -7.2414         estimate D2E/DX2                !
 ! D17   D(19,8,14,4)           -5.0702         estimate D2E/DX2                !
 ! D18   D(19,8,14,7)          176.7246         estimate D2E/DX2                !
 ! D19   D(20,8,14,4)         -171.839          estimate D2E/DX2                !
 ! D20   D(20,8,14,7)            9.9559         estimate D2E/DX2                !
 ! D21   D(1,9,10,12)           -0.3031         estimate D2E/DX2                !
 ! D22   D(1,9,10,15)         -179.7154         estimate D2E/DX2                !
 ! D23   D(13,9,10,12)         179.2601         estimate D2E/DX2                !
 ! D24   D(13,9,10,15)          -0.1522         estimate D2E/DX2                !
 ! D25   D(1,9,13,6)          -178.4375         estimate D2E/DX2                !
 ! D26   D(1,9,13,17)            0.6389         estimate D2E/DX2                !
 ! D27   D(10,9,13,6)            2.0316         estimate D2E/DX2                !
 ! D28   D(10,9,13,17)        -178.8921         estimate D2E/DX2                !
 ! D29   D(9,10,12,11)           0.3395         estimate D2E/DX2                !
 ! D30   D(9,10,12,16)        -179.5356         estimate D2E/DX2                !
 ! D31   D(15,10,12,11)        179.5614         estimate D2E/DX2                !
 ! D32   D(15,10,12,16)         -0.3138         estimate D2E/DX2                !
 ! D33   D(1,11,12,10)          -0.266          estimate D2E/DX2                !
 ! D34   D(1,11,12,16)         179.6393         estimate D2E/DX2                !
 ! D35   D(5,11,12,10)        -178.9046         estimate D2E/DX2                !
 ! D36   D(5,11,12,16)           1.0007         estimate D2E/DX2                !
 --------------------------------------------------------------------------------
 Trust Radius=3.00D-01 FncErr=1.00D-07 GrdErr=1.00D-06
 Number of steps in this run=     95 maximum allowed number of steps=    120.
 GradGradGradGradGradGradGradGradGradGradGradGradGradGradGradGradGradGrad

                          Input orientation:                          
 ---------------------------------------------------------------------
 Center     Atomic      Atomic             Coordinates (Angstroms)
 Number     Number       Type             X           Y           Z
 ---------------------------------------------------------------------
      1          8           0        8.016000    5.775000   -5.265000
      2          8           0        4.643000    6.899000   -5.158000
      3          8           0        5.459000    4.809000   -5.395000
      4          8           0       13.537000    8.647000   -4.911000
      5          7           0        5.595000    6.055000   -5.242000
      6          7           0       11.416000    6.957000   -5.131000
      7          7           0       12.687000    6.504000   -5.170000
      8          7           0       14.984000    6.879000   -5.160000
      9          6           0        9.099000    6.646000   -5.172000
     10          6           0        8.657000    7.949000   -5.016000
     11          6           0        6.906000    6.589000   -5.164000
     12          6           0        7.257000    7.912000   -5.016000
     13          6           0       10.429000    6.118000   -5.253000
     14          6           0       13.741000    7.451000   -5.079000
     15          1           0        9.553000    8.821000   -4.927000
     16          1           0        6.309000    8.738000   -4.922000
     17          1           0       10.569000    5.034000   -5.398000
     18          1           0       12.875000    5.514000   -5.395000
     19          1           0       15.784000    7.509000   -5.153000
     20          1           0       15.142000    5.907000   -5.418000
 ---------------------------------------------------------------------
                    Distance matrix (angstroms):
                    1          2          3          4          5
     1  O    0.000000
     2  O    3.556959   0.000000
     3  O    2.736477   2.256131   0.000000
     4  O    6.233389   9.067511   8.956483   0.000000
     5  N    2.437246   1.275028   1.262704   8.360825   0.000000
     6  N    3.602094   6.773302   6.337937   2.720871   5.891516
     7  N    4.728499   8.053701   7.427492   2.319920   7.106564
     8  N    7.055697  10.341020   9.750167   2.298181   9.425445
     9  C    1.392903   4.463199   4.083368   4.875240   3.554180
    10  C    2.280166   4.151489   4.497827   4.930784   3.607514
    11  C    1.380180   2.284142   2.305552   6.947628   1.417731
    12  C    2.281414   2.807014   3.606252   6.323737   2.502353
    13  C    2.437286   5.839245   5.141454   4.021501   4.834423
    14  C    5.968182   9.115073   8.698939   1.224849   8.266360
    15  H    3.428517   5.277835   5.751174   3.987830   4.838982
    16  H    3.436694   2.492624   4.047625   7.228581   2.794760
    17  H    2.661687   6.217178   5.114952   4.701060   5.080104
    18  H    4.867741   8.351061   7.449435   3.238547   7.301677
    19  H    7.959970  11.157688  10.674933   2.530339  10.292607
    20  H    7.128864  10.548965   9.745082   3.215692   9.549769
                    6          7          8          9         10
     6  N    0.000000
     7  N    1.349878   0.000000
     8  N    3.568970   2.327431   0.000000
     9  C    2.338138   3.590809   5.889623   0.000000
    10  C    2.934173   4.283998   6.418455   1.384741   0.000000
    11  C    4.525109   5.781628   8.083205   2.193755   2.222050
    12  C    4.268786   5.611691   7.797073   2.240548   1.400489
    13  C    1.301143   2.292258   4.619069   1.433264   2.559046
    14  C    2.377470   1.419861   1.370691   4.712201   5.108721
    15  H    2.643271   3.905060   5.772470   2.235345   1.253444
    16  H    5.412679   6.762481   8.875142   3.496150   2.478802
    17  H    2.118166   2.588206   4.790918   2.193290   3.506978
    18  H    2.068967   1.032506   2.523159   3.948332   4.885119
    19  H    4.402796   3.256029   1.018307   6.740501   7.141883
    20  H    3.881745   2.538688   1.017994   6.092987   6.810770
                   11         12         13         14         15
    11  C    0.000000
    12  C    1.376748   0.000000
    13  C    3.555459   3.651875   0.000000
    14  C    6.889666   6.500673   3.574424   0.000000
    15  H    3.470533   2.470995   2.860046   4.409008   0.000000
    16  H    2.243474   1.260879   4.893706   7.544246   3.245065
    17  H    3.986270   4.404333   1.102579   4.000654   3.949110
    18  H    6.069427   6.120128   2.523469   2.145176   4.710728
    19  H    8.925548   8.537617   5.533616   2.045162   6.371639
    20  H    8.268091   8.145849   4.720605   2.112264   6.322136
                   16         17         18         19         20
    16  H    0.000000
    17  H    5.665138   0.000000
    18  H    7.330093   2.355429   0.000000
    19  H    9.557166   5.777705   3.535657   0.000000
    20  H    9.288836   4.655626   2.300927   1.746079   0.000000
 Stoichiometry    C6H6N4O4
 Framework group  C1[X(C6H6N4O4)]
 Deg. of freedom    54
 Full point group                 C1      NOp   1
 Largest Abelian subgroup         C1      NOp   1
 Largest concise Abelian subgroup C1      NOp   1
                         Standard orientation:                         
 ---------------------------------------------------------------------
 Center     Atomic      Atomic             Coordinates (Angstroms)
 Number     Number       Type             X           Y           Z
 ---------------------------------------------------------------------
      1          8           0        1.635012   -0.810340   -0.017640
      2          8           0        4.840724    0.730342    0.023093
      3          8           0        4.293649   -1.458267   -0.005611
      4          8           0       -4.203985    1.371690   -0.017613
      5          7           0        4.002028   -0.229707   -0.001173
      6          7           0       -1.886880   -0.054518   -0.007951
      7          7           0       -3.091208   -0.663904   -0.028307
      8          7           0       -5.416896   -0.580225    0.004946
      9          6           0        0.451148   -0.076574   -0.002379
     10          6           0        0.725895    1.280603    0.007224
     11          6           0        2.633956    0.142021   -0.013736
     12          6           0        2.119535    1.418914    0.004964
     13          6           0       -0.801828   -0.772387    0.009414
     14          6           0       -4.255697    0.148039   -0.001470
     15          1           0       -0.272499    2.038194    0.026897
     16          1           0        2.956356    2.361995    0.017042
     17          1           0       -0.804254   -1.874938    0.016912
     18          1           0       -3.151797   -1.689905    0.070279
     19          1           0       -6.288878   -0.059087    0.075746
     20          1           0       -5.449491   -1.588883    0.138582
 ---------------------------------------------------------------------
 Rotational constants (GHZ):      3.0630330      0.2222696      0.2072429
 Standard basis: 3-21G (6D, 7F)
 There are   138 symmetry adapted cartesian basis functions of A   symmetry.
 There are   138 symmetry adapted basis functions of A   symmetry.
   138 basis functions,   228 primitive gaussians,   138 cartesian basis functions
    51 alpha electrons       51 beta electrons
       nuclear repulsion energy       817.6812008728 Hartrees.
 NAtoms=   20 NActive=   20 NUniq=   20 SFac= 1.00D+00 NAtFMM=   60 NAOKFM=F Big=F
 Integral buffers will be    131072 words long.
 Raffenetti 2 integral format.
 Two-electron integral symmetry is turned on.
 One-electron integrals computed using PRISM.
 PrsmSu:  requested number of processors reduced to:  10 ShMem   1 Linda.
 NBasis=   138 RedAO= T EigKep=  2.61D-03  NBF=   138
 NBsUse=   138 1.00D-06 EigRej= -1.00D+00 NBFU=   138
 ExpMin= 1.83D-01 ExpMax= 3.22D+02 ExpMxC= 3.22D+02 IAcc=1 IRadAn=         1 AccDes= 0.00D+00
 Harris functional with IExCor=  402 and IRadAn=       1 diagonalized for initial guess.
 HarFok:  IExCor=  402 AccDes= 0.00D+00 IRadAn=         1 IDoV= 1 UseB2=F ITyADJ=14
 ICtDFT=  3500011 ScaDFX=  1.000000  1.000000  1.000000  1.000000
 FoFCou: FMM=F IPFlag=           0 FMFlag=      100000 FMFlg1=           0
         NFxFlg=           0 DoJE=T BraDBF=F KetDBF=T FulRan=T
         wScrn=  0.000000 ICntrl=     500 IOpCl=  0 I1Cent=   200000004 NGrid=           0
         NMat0=    1 NMatS0=      1 NMatT0=    0 NMatD0=    1 NMtDS0=    0 NMtDT0=    0
 Petite list used in FoFCou.
 Requested convergence on RMS density matrix=1.00D-08 within 128 cycles.
 Requested convergence on MAX density matrix=1.00D-06.
 Requested convergence on             energy=1.00D-06.
 No special actions if energy rises.
 Integral accuracy reduced to 1.0D-05 until final iterations.
 Initial convergence to 1.0D-05 achieved.  Increase integral accuracy.
 SCF Done:  E(RB3LYP) =  -747.766584986     A.U. after   17 cycles
            NFock= 17  Conv=0.55D-08     -V/T= 2.0083

 **********************************************************************

            Population analysis using the SCF density.

 **********************************************************************

 Orbital symmetries:
       Occupied  (A) (A) (A) (A) (A) (A) (A) (A) (A) (A) (A) (A)
                 (A) (A) (A) (A) (A) (A) (A) (A) (A) (A) (A) (A)
                 (A) (A) (A) (A) (A) (A) (A) (A) (A) (A) (A) (A)
                 (A) (A) (A) (A) (A) (A) (A) (A) (A) (A) (A) (A)
                 (A) (A) (A)
       Virtual   (A) (A) (A) (A) (A) (A) (A) (A) (A) (A) (A) (A)
                 (A) (A) (A) (A) (A) (A) (A) (A) (A) (A) (A) (A)
                 (A) (A) (A) (A) (A) (A) (A) (A) (A) (A) (A) (A)
                 (A) (A) (A) (A) (A) (A) (A) (A) (A) (A) (A) (A)
                 (A) (A) (A) (A) (A) (A) (A) (A) (A) (A) (A) (A)
                 (A) (A) (A) (A) (A) (A) (A) (A) (A) (A) (A) (A)
                 (A) (A) (A) (A) (A) (A) (A) (A) (A) (A) (A) (A)
                 (A) (A) (A)
 The electronic state is 1-A.
 Alpha  occ. eigenvalues --  -19.15405 -19.05822 -19.05532 -19.01351 -14.48010
 Alpha  occ. eigenvalues --  -14.34621 -14.32796 -14.29395 -10.27801 -10.24556
 Alpha  occ. eigenvalues --  -10.22659 -10.20005 -10.18291 -10.17109  -1.20912
 Alpha  occ. eigenvalues --   -1.15503  -1.08524  -1.03673  -1.03439  -0.93483
 Alpha  occ. eigenvalues --   -0.87555  -0.85148  -0.82314  -0.74199  -0.66281
 Alpha  occ. eigenvalues --   -0.64175  -0.62549  -0.58951  -0.56143  -0.55733
 Alpha  occ. eigenvalues --   -0.53742  -0.53109  -0.52275  -0.49604  -0.47820
 Alpha  occ. eigenvalues --   -0.47805  -0.46429  -0.43909  -0.41240  -0.40649
 Alpha  occ. eigenvalues --   -0.39853  -0.39693  -0.31664  -0.30379  -0.30142
 Alpha  occ. eigenvalues --   -0.28578  -0.28019  -0.27582  -0.27189  -0.27007
 Alpha  occ. eigenvalues --   -0.22942
 Alpha virt. eigenvalues --   -0.09557  -0.04355   0.04003   0.04616   0.05917
 Alpha virt. eigenvalues --    0.06231   0.08817   0.09280   0.11039   0.11499
 Alpha virt. eigenvalues --    0.12718   0.13774   0.18875   0.20223   0.23514
 Alpha virt. eigenvalues --    0.24571   0.25330   0.29836   0.31390   0.34634
 Alpha virt. eigenvalues --    0.37998   0.42102   0.42597   0.46741   0.51093
 Alpha virt. eigenvalues --    0.66569   0.68015   0.68947   0.69815   0.70585
 Alpha virt. eigenvalues --    0.72632   0.73100   0.73687   0.76193   0.76528
 Alpha virt. eigenvalues --    0.76692   0.78690   0.79124   0.84366   0.86103
 Alpha virt. eigenvalues --    0.86722   0.90066   0.94156   0.95561   1.05030
 Alpha virt. eigenvalues --    1.05241   1.06087   1.07026   1.08587   1.10209
 Alpha virt. eigenvalues --    1.10830   1.14931   1.15840   1.18430   1.25190
 Alpha virt. eigenvalues --    1.32840   1.35648   1.36333   1.40059   1.43624
 Alpha virt. eigenvalues --    1.44475   1.45881   1.48682   1.50117   1.53931
 Alpha virt. eigenvalues --    1.56088   1.56847   1.57877   1.60857   1.62847
 Alpha virt. eigenvalues --    1.64974   1.65649   1.67991   1.69250   1.76305
 Alpha virt. eigenvalues --    1.77810   1.79436   1.96341   2.23438   2.45020
 Alpha virt. eigenvalues --    2.57544   2.67021   2.69767   2.87919   2.90124
 Alpha virt. eigenvalues --    3.33124   3.42699
          Condensed to atoms (all electrons):
               1          2          3          4          5          6
     1  O    8.164059   0.000263   0.000003   0.000000  -0.018207   0.000568
     2  O    0.000263   8.256291  -0.058649   0.000000   0.190169   0.000000
     3  O    0.000003  -0.058649   8.272570   0.000000   0.152330   0.000000
     4  O    0.000000   0.000000   0.000000   8.020788   0.000000   0.001315
     5  N   -0.018207   0.190169   0.152330   0.000000   6.656947   0.000000
     6  N    0.000568   0.000000   0.000000   0.001315   0.000000   6.783856
     7  N   -0.000002   0.000000   0.000000  -0.068749   0.000000   0.210319
     8  N    0.000000   0.000000   0.000000  -0.071289   0.000000   0.001536
     9  C    0.270613  -0.000041   0.000126   0.000003  -0.002128  -0.088349
    10  C   -0.079606   0.000422  -0.000042  -0.000004   0.005427  -0.000673
    11  C    0.278720  -0.096814  -0.068816   0.000000   0.022660  -0.000064
    12  C   -0.087470   0.011019   0.003408   0.000000  -0.046178   0.000308
    13  C   -0.023257   0.000000   0.000001   0.000303  -0.000048   0.457424
    14  C    0.000000   0.000000   0.000000   0.600216   0.000000  -0.047875
    15  H    0.001170   0.000000   0.000000   0.000032  -0.000003   0.007038
    16  H    0.001172   0.010551   0.000047   0.000000  -0.003480   0.000000
    17  H    0.000215   0.000000   0.000000  -0.000001  -0.000002  -0.050326
    18  H    0.000000   0.000000   0.000000   0.001136   0.000000  -0.029366
    19  H    0.000000   0.000000   0.000000   0.001274   0.000000  -0.000032
    20  H    0.000000   0.000000   0.000000   0.001649   0.000000  -0.000004
               7          8          9         10         11         12
     1  O   -0.000002   0.000000   0.270613  -0.079606   0.278720  -0.087470
     2  O    0.000000   0.000000  -0.000041   0.000422  -0.096814   0.011019
     3  O    0.000000   0.000000   0.000126  -0.000042  -0.068816   0.003408
     4  O   -0.068749  -0.071289   0.000003  -0.000004   0.000000   0.000000
     5  N    0.000000   0.000000  -0.002128   0.005427   0.022660  -0.046178
     6  N    0.210319   0.001536  -0.088349  -0.000673  -0.000064   0.000308
     7  N    7.233672  -0.100529   0.006038  -0.000097   0.000000  -0.000001
     8  N   -0.100529   7.150432   0.000000   0.000000   0.000000   0.000000
     9  C    0.006038   0.000000   5.207832   0.336852  -0.146131  -0.116089
    10  C   -0.000097   0.000000   0.336852   5.395610  -0.115949   0.371759
    11  C    0.000000   0.000000  -0.146131  -0.115949   5.286499   0.235633
    12  C   -0.000001   0.000000  -0.116089   0.371759   0.235633   5.454640
    13  C   -0.087273  -0.000040   0.334490  -0.066606   0.000334   0.007201
    14  C    0.075869   0.156512  -0.000031  -0.000003   0.000000   0.000000
    15  H   -0.000094   0.000000  -0.033102   0.353650   0.002984  -0.009534
    16  H    0.000000   0.000000   0.002945  -0.007433  -0.031886   0.344172
    17  H   -0.009123   0.000004  -0.062602   0.004433  -0.000173  -0.000008
    18  H    0.285838   0.004202  -0.000834   0.000030   0.000000   0.000000
    19  H    0.003363   0.323293   0.000000   0.000000   0.000000   0.000000
    20  H    0.002387   0.309219   0.000000   0.000000   0.000000   0.000000
              13         14         15         16         17         18
     1  O   -0.023257   0.000000   0.001170   0.001172   0.000215   0.000000
     2  O    0.000000   0.000000   0.000000   0.010551   0.000000   0.000000
     3  O    0.000001   0.000000   0.000000   0.000047   0.000000   0.000000
     4  O    0.000303   0.600216   0.000032   0.000000  -0.000001   0.001136
     5  N   -0.000048   0.000000  -0.000003  -0.003480  -0.000002   0.000000
     6  N    0.457424  -0.047875   0.007038   0.000000  -0.050326  -0.029366
     7  N   -0.087273   0.075869  -0.000094   0.000000  -0.009123   0.285838
     8  N   -0.000040   0.156512   0.000000   0.000000   0.000004   0.004202
     9  C    0.334490  -0.000031  -0.033102   0.002945  -0.062602  -0.000834
    10  C   -0.066606  -0.000003   0.353650  -0.007433   0.004433   0.000030
    11  C    0.000334   0.000000   0.002984  -0.031886  -0.000173   0.000000
    12  C    0.007201   0.000000  -0.009534   0.344172  -0.000008   0.000000
    13  C    4.998879   0.006377  -0.001399  -0.000019   0.329246  -0.007125
    14  C    0.006377   4.360813   0.000032   0.000000  -0.000369  -0.027810
    15  H   -0.001399   0.000032   0.446488  -0.000504   0.000106   0.000010
    16  H   -0.000019   0.000000  -0.000504   0.452489   0.000000   0.000000
    17  H    0.329246  -0.000369   0.000106   0.000000   0.571814   0.014407
    18  H   -0.007125  -0.027810   0.000010   0.000000   0.014407   0.450570
    19  H    0.000001  -0.024047   0.000000   0.000000   0.000000  -0.000116
    20  H   -0.000024  -0.014753   0.000000   0.000000   0.000008   0.003852
              19         20
     1  O    0.000000   0.000000
     2  O    0.000000   0.000000
     3  O    0.000000   0.000000
     4  O    0.001274   0.001649
     5  N    0.000000   0.000000
     6  N   -0.000032  -0.000004
     7  N    0.003363   0.002387
     8  N    0.323293   0.309219
     9  C    0.000000   0.000000
    10  C    0.000000   0.000000
    11  C    0.000000   0.000000
    12  C    0.000000   0.000000
    13  C    0.000001  -0.000024
    14  C   -0.024047  -0.014753
    15  H    0.000000   0.000000
    16  H    0.000000   0.000000
    17  H    0.000000   0.000008
    18  H   -0.000116   0.003852
    19  H    0.382182  -0.021307
    20  H   -0.021307   0.413173
 Mulliken charges:
               1
     1  O   -0.508240
     2  O   -0.313211
     3  O   -0.300978
     4  O   -0.486674
     5  N    0.042512
     6  N   -0.245674
     7  N   -0.551619
     8  N   -0.773339
     9  C    0.290407
    10  C   -0.197769
    11  C    0.633005
    12  C   -0.168861
    13  C    0.051535
    14  C    0.915069
    15  H    0.233127
    16  H    0.231945
    17  H    0.202371
    18  H    0.305207
    19  H    0.335388
    20  H    0.305799
 Sum of Mulliken charges =   0.00000
 Mulliken charges with hydrogens summed into heavy atoms:
               1
     1  O   -0.508240
     2  O   -0.313211
     3  O   -0.300978
     4  O   -0.486674
     5  N    0.042512
     6  N   -0.245674
     7  N   -0.246411
     8  N   -0.132152
     9  C    0.290407
    10  C    0.035358
    11  C    0.633005
    12  C    0.063084
    13  C    0.253906
    14  C    0.915069
 Electronic spatial extent (au):  <R**2>=           4719.9574
 Charge=              0.0000 electrons
 Dipole moment (field-independent basis, Debye):
    X=             -7.5287    Y=             -3.1943    Z=              0.6369  Tot=              8.2031
 Quadrupole moment (field-independent basis, Debye-Ang):
   XX=            -78.2885   YY=            -75.7069   ZZ=            -79.7574
   XY=             25.2716   XZ=             -3.2081   YZ=             -0.6679
 Traceless Quadrupole moment (field-independent basis, Debye-Ang):
   XX=             -0.3709   YY=              2.2107   ZZ=             -1.8398
   XY=             25.2716   XZ=             -3.2081   YZ=             -0.6679
 Octapole moment (field-independent basis, Debye-Ang**2):
  XXX=           -312.4882  YYY=            -11.5686  ZZZ=              0.2244  XYY=            -15.4495
  XXY=            -64.1554  XXZ=             15.4624  XZZ=              8.1449  YZZ=             -3.7314
  YYZ=              1.4494  XYZ=              2.9924
 Hexadecapole moment (field-independent basis, Debye-Ang**3):
 XXXX=          -4617.7905 YYYY=           -423.6857 ZZZZ=            -67.1207 XXXY=            359.7769
 XXXZ=            -92.9445 YYYX=             87.6196 YYYZ=             -1.5020 ZZZX=             -1.1164
 ZZZY=             -0.3700 XXYY=           -947.1041 XXZZ=           -879.1759 YYZZ=            -91.9842
 XXYZ=            -16.2868 YYXZ=             -5.2182 ZZXY=            -19.5499
 N-N= 8.176812008728D+02 E-N=-3.383518445140D+03  KE= 7.415954747810D+02
 PrsmSu:  requested number of processors reduced to:  10 ShMem   1 Linda.
 Calling FoFJK, ICntrl=      2127 FMM=F ISym2X=0 I1Cent= 0 IOpClX= 0 NMat=1 NMatS=1 NMatT=0.
 ***** Axes restored to original set *****
 -------------------------------------------------------------------
 Center     Atomic                   Forces (Hartrees/Bohr)
 Number     Number              X              Y              Z
 -------------------------------------------------------------------
      1        8          -0.001443491   -0.004739139   -0.000927906
      2        8          -0.011096694    0.015169557    0.002099838
      3        8           0.004097792   -0.022530453   -0.002287910
      4        8          -0.000430049    0.005600000    0.000186034
      5        7           0.012940267    0.004368967    0.000283191
      6        7          -0.012737911    0.001885769    0.002030914
      7        7           0.013086412   -0.015521433   -0.008194456
      8        7           0.005397966   -0.006696448   -0.006449634
      9        6           0.001195311   -0.000655361   -0.000885211
     10        6           0.074228660    0.048198541    0.004232600
     11        6          -0.010831887    0.007621923   -0.000203950
     12        6          -0.074185182    0.042585675    0.005679442
     13        6           0.009596223   -0.001740972    0.001027539
     14        6          -0.002736347    0.004676799    0.004568545
     15        1          -0.062343534   -0.046012055   -0.004318493
     16        1           0.066226989   -0.045580449   -0.005202993
     17        1          -0.005108070    0.006941111    0.000949463
     18        1          -0.000866206    0.005492243    0.003636374
     19        1          -0.004861066   -0.003191954    0.001178520
     20        1          -0.000129184    0.004127679    0.002598094
 -------------------------------------------------------------------
 Cartesian Forces:  Max     0.074228660 RMS     0.022402329

 GradGradGradGradGradGradGradGradGradGradGradGradGradGradGradGradGradGrad
 Berny optimization.
 FormGI is forming the generalized inverse of G from B-inverse, IUseBI=4.
 GSVD:  received Info=                   1 from GESDD.
 Internal  Forces:  Max     0.080040517 RMS     0.013197646
 Search for a local minimum.
 Step number   1 out of a maximum of   95
 All quantities printed in internal units (Hartrees-Bohrs-Radians)
 Mixed Optimization -- RFO/linear search
 Second derivative matrix not updated -- first step.
 ITU=  0
     Eigenvalues ---    0.01429   0.01457   0.01458   0.01649   0.01666
     Eigenvalues ---    0.01765   0.01900   0.01942   0.01958   0.02025
     Eigenvalues ---    0.02079   0.02127   0.02144   0.02216   0.02255
     Eigenvalues ---    0.02264   0.02999   0.15925   0.15998   0.15999
     Eigenvalues ---    0.16000   0.16000   0.16000   0.20706   0.21142
     Eigenvalues ---    0.22000   0.22025   0.22845   0.24716   0.24990
     Eigenvalues ---    0.24993   0.24999   0.25000   0.25000   0.25000
     Eigenvalues ---    0.25000   0.33398   0.40524   0.42055   0.42401
     Eigenvalues ---    0.42481   0.42681   0.42804   0.44609   0.44660
     Eigenvalues ---    0.46523   0.48577   0.49036   0.50844   0.55047
     Eigenvalues ---    0.66877   0.74634   0.78714   0.93267
 RFO step:  Lambda=-5.36680061D-02 EMin= 1.42905390D-02
 Linear search not attempted -- first point.
 Maximum step size (   0.300) exceeded in Quadratic search.
    -- Step size scaled by   0.670
 Iteration  1 RMS(Cart)=  0.05473607 RMS(Int)=  0.00124702
 Iteration  2 RMS(Cart)=  0.00173459 RMS(Int)=  0.00002824
 Iteration  3 RMS(Cart)=  0.00000378 RMS(Int)=  0.00002803
 Iteration  4 RMS(Cart)=  0.00000000 RMS(Int)=  0.00002803
 Variable       Old X    -DE/DX   Delta X   Delta X   Delta X     New X
                                 (Linear)    (Quad)   (Total)
    R1        2.63221   0.00470   0.00000   0.00608   0.00608   2.63828
    R2        2.60816   0.00403   0.00000   0.00481   0.00481   2.61297
    R3        2.40945   0.01847   0.00000   0.01546   0.01546   2.42491
    R4        2.38616   0.02207   0.00000   0.01758   0.01758   2.40374
    R5        2.31463   0.00556   0.00000   0.00378   0.00378   2.31841
    R6        2.67912  -0.00437   0.00000  -0.00608  -0.00608   2.67304
    R7        2.55090   0.01083   0.00000   0.01201   0.01201   2.56291
    R8        2.45880  -0.00487   0.00000  -0.00451  -0.00451   2.45429
    R9        2.68315   0.00109   0.00000   0.00153   0.00153   2.68468
   R10        1.95115  -0.00622   0.00000  -0.00871  -0.00871   1.94244
   R11        2.59023   0.00293   0.00000   0.00349   0.00349   2.59373
   R12        1.92432  -0.00579   0.00000  -0.00775  -0.00775   1.91657
   R13        1.92373  -0.00462   0.00000  -0.00618  -0.00618   1.91755
   R14        2.61678   0.00037   0.00000   0.00062   0.00062   2.61741
   R15        2.70848   0.00046   0.00000   0.00067   0.00067   2.70915
   R16        2.64654   0.00992   0.00000   0.01312   0.01312   2.65966
   R17        2.36867  -0.07688   0.00000  -0.19423  -0.19423   2.17443
   R18        2.60168  -0.00127   0.00000  -0.00166  -0.00166   2.60001
   R19        2.38272  -0.08004   0.00000  -0.20559  -0.20559   2.17712
   R20        2.08357  -0.00760   0.00000  -0.01313  -0.01313   2.07045
    A1        1.82516   0.00387   0.00000   0.00820   0.00820   1.83336
    A2        2.19045   0.00844   0.00000   0.01864   0.01863   2.20908
    A3        2.02360  -0.00133   0.00000  -0.00291  -0.00293   2.02067
    A4        2.06910  -0.00711   0.00000  -0.01565  -0.01567   2.05344
    A5        2.08879  -0.00362   0.00000  -0.00799  -0.00799   2.08080
    A6        2.06380  -0.00130   0.00000  -0.00281  -0.00285   2.06095
    A7        2.09383   0.00094   0.00000   0.00304   0.00300   2.09683
    A8        2.11567   0.00058   0.00000   0.00189   0.00186   2.11753
    A9        2.04187  -0.00104   0.00000  -0.00249  -0.00254   2.03933
   A10        2.15817   0.00139   0.00000   0.00512   0.00507   2.16324
   A11        2.06069   0.00008   0.00000   0.00105   0.00100   2.06168
   A12        1.92596  -0.00226   0.00000  -0.00472  -0.00472   1.92124
   A13        2.07986  -0.00304   0.00000  -0.00683  -0.00683   2.07304
   A14        2.27734   0.00530   0.00000   0.01155   0.01155   2.28889
   A15        1.86944  -0.00058   0.00000  -0.00105  -0.00105   1.86839
   A16        2.02022   0.01280   0.00000   0.03976   0.03976   2.05998
   A17        2.39346  -0.01222   0.00000  -0.03867  -0.03867   2.35479
   A18        2.11475  -0.00808   0.00000  -0.01757  -0.01757   2.09719
   A19        1.94935  -0.00299   0.00000  -0.00704  -0.00705   1.94231
   A20        2.21883   0.01108   0.00000   0.02470   0.02469   2.24353
   A21        1.85485   0.00196   0.00000   0.00463   0.00463   1.85948
   A22        2.39541  -0.01191   0.00000  -0.03657  -0.03657   2.35884
   A23        2.03292   0.00995   0.00000   0.03194   0.03194   2.06486
   A24        2.04999   0.00642   0.00000   0.01572   0.01571   2.06571
   A25        2.15312   0.00115   0.00000   0.00583   0.00582   2.15894
   A26        2.07995  -0.00755   0.00000  -0.02144  -0.02145   2.05851
   A27        2.13698   0.00462   0.00000   0.01026   0.01025   2.14722
   A28        2.17319   0.00344   0.00000   0.00765   0.00764   2.18084
   A29        1.97257  -0.00805   0.00000  -0.01769  -0.01770   1.95488
    D1        0.00244  -0.00015   0.00000  -0.00172  -0.00175   0.00069
    D2       -3.13251  -0.00022   0.00000  -0.00215  -0.00219  -3.13470
    D3        3.12089   0.00064   0.00000   0.00455   0.00449   3.12538
    D4        0.00144   0.00001   0.00000   0.00028   0.00030   0.00174
    D5       -3.12268  -0.00076   0.00000  -0.00730  -0.00730  -3.12998
    D6       -0.00689  -0.00027   0.00000  -0.00288  -0.00288  -0.00978
    D7        0.01088   0.00015   0.00000   0.00169   0.00170   0.01258
    D8        3.12667   0.00064   0.00000   0.00612   0.00611   3.13278
    D9        3.10526   0.00010   0.00000   0.00131   0.00131   3.10657
   D10        0.11244  -0.00156   0.00000  -0.01471  -0.01471   0.09773
   D11        3.11563   0.00119   0.00000   0.01011   0.01015   3.12578
   D12       -0.00911   0.00029   0.00000   0.00175   0.00170  -0.00741
   D13        0.05492  -0.00099   0.00000  -0.00932  -0.00932   0.04560
   D14       -3.11726  -0.00016   0.00000  -0.00150  -0.00150  -3.11875
   D15        3.04579   0.00072   0.00000   0.00700   0.00700   3.05279
   D16       -0.12639   0.00155   0.00000   0.01482   0.01483  -0.11156
   D17       -0.08849   0.00144   0.00000   0.01283   0.01283  -0.07566
   D18        3.08443   0.00057   0.00000   0.00478   0.00479   3.08922
   D19       -2.99916  -0.00069   0.00000  -0.00587  -0.00587  -3.00503
   D20        0.17376  -0.00156   0.00000  -0.01392  -0.01392   0.15985
   D21       -0.00529   0.00025   0.00000   0.00252   0.00254  -0.00275
   D22       -3.13662   0.00006   0.00000  -0.00013  -0.00024  -3.13686
   D23        3.12868   0.00028   0.00000   0.00290   0.00294   3.13162
   D24       -0.00266   0.00009   0.00000   0.00025   0.00016  -0.00249
   D25       -3.11432  -0.00077   0.00000  -0.00697  -0.00693  -3.12126
   D26        0.01115   0.00017   0.00000   0.00129   0.00127   0.01242
   D27        0.03546  -0.00081   0.00000  -0.00740  -0.00738   0.02808
   D28       -3.12226   0.00013   0.00000   0.00086   0.00082  -3.12143
   D29        0.00593  -0.00022   0.00000  -0.00220  -0.00222   0.00370
   D30       -3.13349  -0.00028   0.00000  -0.00265  -0.00263  -3.13612
   D31        3.13394   0.00030   0.00000   0.00213   0.00203   3.13597
   D32       -0.00548   0.00023   0.00000   0.00168   0.00162  -0.00386
   D33       -0.00464   0.00015   0.00000   0.00122   0.00121  -0.00343
   D34        3.13530   0.00016   0.00000   0.00147   0.00145   3.13675
   D35       -3.12247  -0.00022   0.00000  -0.00267  -0.00270  -3.12517
   D36        0.01747  -0.00020   0.00000  -0.00242  -0.00246   0.01501
         Item               Value     Threshold  Converged?
 Maximum Force            0.080041     0.000450     NO 
 RMS     Force            0.013198     0.000300     NO 
 Maximum Displacement     0.266068     0.001800     NO 
 RMS     Displacement     0.054481     0.001200     NO 
 Predicted change in Energy=-2.635860D-02
 GradGradGradGradGradGradGradGradGradGradGradGradGradGradGradGradGradGrad

                          Input orientation:                          
 ---------------------------------------------------------------------
 Center     Atomic      Atomic             Coordinates (Angstroms)
 Number     Number       Type             X           Y           Z
 ---------------------------------------------------------------------
      1          8           0        8.022060    5.809302   -5.265871
      2          8           0        4.620684    6.839779   -5.164892
      3          8           0        5.536435    4.763002   -5.405834
      4          8           0       13.591349    8.651074   -4.916161
      5          7           0        5.607121    6.023806   -5.252950
      6          7           0       11.425399    6.996208   -5.120540
      7          7           0       12.693339    6.517433   -5.170228
      8          7           0       14.987558    6.833712   -5.173529
      9          6           0        9.097966    6.693174   -5.164159
     10          6           0        8.635413    7.989336   -5.007848
     11          6           0        6.894521    6.603667   -5.168037
     12          6           0        7.229280    7.929248   -5.013821
     13          6           0       10.430532    6.169810   -5.239143
     14          6           0       13.763440    7.447659   -5.081500
     15          1           0        9.412203    8.833103   -4.914710
     16          1           0        6.378379    8.700823   -4.924737
     17          1           0       10.550820    5.090771   -5.386173
     18          1           0       12.862882    5.526808   -5.385831
     19          1           0       15.803646    7.435836   -5.165931
     20          1           0       15.114974    5.858449   -5.423106
 ---------------------------------------------------------------------
                    Distance matrix (angstroms):
                    1          2          3          4          5
     1  O    0.000000
     2  O    3.555480   0.000000
     3  O    2.700493   2.282467   0.000000
     4  O    6.262183   9.155079   8.957595   0.000000
     5  N    2.424481   1.283208   1.272005   8.412125   0.000000
     6  N    3.607296   6.806657   6.304641   2.733439   5.900463
     7  N    4.725616   8.079090   7.372572   2.328818   7.103872
     8  N    7.041030  10.366879   9.678096   2.306175   9.415671
     9  C    1.396119   4.479681   4.058136   4.907685   3.555550
    10  C    2.279326   4.179018   4.491246   5.000760   3.618554
    11  C    1.382726   2.286065   2.299781   7.007340   1.414514
    12  C    2.277323   2.830995   3.611719   6.403631   2.513820
    13  C    2.435450   5.848820   5.095005   4.031346   4.825640
    14  C    5.973412   9.163321   8.660034   1.226849   8.281442
    15  H    3.346518   5.195631   5.641675   4.183108   4.741857
    16  H    3.343494   2.571118   4.055460   7.213147   2.805170
    17  H    2.631613   6.186639   5.025124   4.705474   5.032739
    18  H    4.850541   8.349043   7.366180   3.242266   7.273976
    19  H    7.950388  11.198835  10.612125   2.536424  10.294198
    20  H    7.094827  10.543235   9.640991   3.221363   9.510813
                    6          7          8          9         10
     6  N    0.000000
     7  N    1.356233   0.000000
     8  N    3.566257   2.315920   0.000000
     9  C    2.347484   3.599671   5.891277   0.000000
    10  C    2.963617   4.319680   6.458535   1.385072   0.000000
    11  C    4.548098   5.799460   8.096308   2.205265   2.230794
    12  C    4.299927   5.645674   7.836874   2.245544   1.407429
    13  C    1.298754   2.290391   4.605601   1.433620   2.566442
    14  C    2.381547   1.420672   1.372540   4.726810   5.157082
    15  H    2.733040   4.024111   5.928671   2.177215   1.150660
    16  H    5.330710   6.686269   8.812830   3.388824   2.367979
    17  H    2.113325   2.583096   4.771552   2.174344   3.494795
    18  H    2.072649   1.027895   2.503462   3.947675   4.906976
    19  H    4.400497   3.243068   1.014204   6.746680   7.191308
    20  H    3.872855   2.522404   1.014722   6.080149   6.833581
                   11         12         13         14         15
    11  C    0.000000
    12  C    1.375867   0.000000
    13  C    3.563237   3.659837   0.000000
    14  C    6.921116   6.552233   3.572958   0.000000
    15  H    3.372429   2.364726   2.869735   4.569522   0.000000
    16  H    2.173398   1.152083   4.787987   7.492271   3.036723
    17  H    3.962948   4.385000   1.095633   3.996083   3.940022
    18  H    6.068639   6.135763   2.520178   2.143197   4.802158
    19  H    8.947905   8.589898   5.520737   2.041986   6.547214
    20  H    8.258103   8.163327   4.698382   2.113984   6.452025
                   16         17         18         19         20
    16  H    0.000000
    17  H    5.536665   0.000000
    18  H    7.234346   2.352819   0.000000
    19  H    9.512835   5.756737   3.512953   0.000000
    20  H    9.200846   4.628413   2.276686   1.740274   0.000000
 Stoichiometry    C6H6N4O4
 Framework group  C1[X(C6H6N4O4)]
 Deg. of freedom    54
 Full point group                 C1      NOp   1
 Largest Abelian subgroup         C1      NOp   1
 Largest concise Abelian subgroup C1      NOp   1
                         Standard orientation:                         
 ---------------------------------------------------------------------
 Center     Atomic      Atomic             Coordinates (Angstroms)
 Number     Number       Type             X           Y           Z
 ---------------------------------------------------------------------
      1          8           0        1.633836   -0.776474   -0.014866
      2          8           0        4.877593    0.678912    0.021608
      3          8           0        4.232665   -1.510395   -0.004058
      4          8           0       -4.251907    1.361972   -0.011902
      5          7           0        4.002467   -0.259417    0.003839
      6          7           0       -1.893073   -0.019179   -0.014846
      7          7           0       -3.090233   -0.656352   -0.028479
      8          7           0       -5.405720   -0.634687    0.010714
      9          6           0        0.454370   -0.029530   -0.005760
     10          6           0        0.748682    1.323875    0.004177
     11          6           0        2.651507    0.159607   -0.009275
     12          6           0        2.151211    1.441212    0.005027
     13          6           0       -0.800957   -0.721907   -0.000064
     14          6           0       -4.269562    0.135302   -0.000613
     15          1           0       -0.128910    2.067973    0.017248
     16          1           0        2.897428    2.318901    0.015912
     17          1           0       -0.783058   -1.817358    0.008908
     18          1           0       -3.131296   -1.679640    0.059623
     19          1           0       -6.290818   -0.144087    0.077962
     20          1           0       -5.406435   -1.641826    0.134538
 ---------------------------------------------------------------------
 Rotational constants (GHZ):      3.0263717      0.2216825      0.2065624
 Standard basis: 3-21G (6D, 7F)
 There are   138 symmetry adapted cartesian basis functions of A   symmetry.
 There are   138 symmetry adapted basis functions of A   symmetry.
   138 basis functions,   228 primitive gaussians,   138 cartesian basis functions
    51 alpha electrons       51 beta electrons
       nuclear repulsion energy       817.0816023051 Hartrees.
 NAtoms=   20 NActive=   20 NUniq=   20 SFac= 1.00D+00 NAtFMM=   60 NAOKFM=F Big=F
 Integral buffers will be    131072 words long.
 Raffenetti 2 integral format.
 Two-electron integral symmetry is turned on.
 One-electron integrals computed using PRISM.
 PrsmSu:  requested number of processors reduced to:  10 ShMem   1 Linda.
 NBasis=   138 RedAO= T EigKep=  2.49D-03  NBF=   138
 NBsUse=   138 1.00D-06 EigRej= -1.00D+00 NBFU=   138
 Initial guess from the checkpoint file:  "/tmp/scratch/63916.prometeo/Gau-27691.chk"
 B after Tr=     0.000000    0.000000    0.000000
         Rot=    1.000000   -0.000316   -0.000022    0.000649 Ang=  -0.08 deg.
 ExpMin= 1.83D-01 ExpMax= 3.22D+02 ExpMxC= 3.22D+02 IAcc=1 IRadAn=         1 AccDes= 0.00D+00
 Harris functional with IExCor=  402 and IRadAn=       1 diagonalized for initial guess.
 HarFok:  IExCor=  402 AccDes= 0.00D+00 IRadAn=         1 IDoV= 1 UseB2=F ITyADJ=14
 ICtDFT=  3500011 ScaDFX=  1.000000  1.000000  1.000000  1.000000
 FoFCou: FMM=F IPFlag=           0 FMFlag=      100000 FMFlg1=           0
         NFxFlg=           0 DoJE=T BraDBF=F KetDBF=T FulRan=T
         wScrn=  0.000000 ICntrl=     500 IOpCl=  0 I1Cent=   200000004 NGrid=           0
         NMat0=    1 NMatS0=      1 NMatT0=    0 NMatD0=    1 NMtDS0=    0 NMtDT0=    0
 Petite list used in FoFCou.
 Requested convergence on RMS density matrix=1.00D-08 within 128 cycles.
 Requested convergence on MAX density matrix=1.00D-06.
 Requested convergence on             energy=1.00D-06.
 No special actions if energy rises.
 Integral accuracy reduced to 1.0D-05 until final iterations.
 Initial convergence to 1.0D-05 achieved.  Increase integral accuracy.
 SCF Done:  E(RB3LYP) =  -747.795624081     A.U. after   15 cycles
            NFock= 15  Conv=0.40D-08     -V/T= 2.0082
 PrsmSu:  requested number of processors reduced to:  10 ShMem   1 Linda.
 Calling FoFJK, ICntrl=      2127 FMM=F ISym2X=0 I1Cent= 0 IOpClX= 0 NMat=1 NMatS=1 NMatT=0.
 ***** Axes restored to original set *****
 -------------------------------------------------------------------
 Center     Atomic                   Forces (Hartrees/Bohr)
 Number     Number              X              Y              Z
 -------------------------------------------------------------------
      1        8           0.000444921   -0.003627381   -0.000625189
      2        8          -0.005932010    0.007351573    0.000849361
      3        8           0.001341265   -0.012291819   -0.001518436
      4        8           0.000357491    0.000863934   -0.000028341
      5        7           0.010273629    0.003153684    0.001106788
      6        7          -0.008666773    0.002065494    0.001745216
      7        7           0.007553165   -0.007911705   -0.005860238
      8        7           0.003060731   -0.002711204   -0.004749664
      9        6          -0.002839541   -0.000332170   -0.000640413
     10        6           0.044656913    0.026140286    0.002537949
     11        6          -0.004018979    0.005112941   -0.000579345
     12        6          -0.046399352    0.022046722    0.003087549
     13        6           0.005404969   -0.000716699    0.000532299
     14        6          -0.002282874    0.003079803    0.003243190
     15        1          -0.036353988   -0.024840597   -0.002472015
     16        1           0.039166088   -0.023192809   -0.002676329
     17        1          -0.003262460    0.002594975    0.000448268
     18        1          -0.000648834    0.002649199    0.002681142
     19        1          -0.001746471   -0.001244964    0.001052723
     20        1          -0.000107890    0.001810736    0.001865486
 -------------------------------------------------------------------
 Cartesian Forces:  Max     0.046399352 RMS     0.013012571

 GradGradGradGradGradGradGradGradGradGradGradGradGradGradGradGradGradGrad
 Berny optimization.
 Using GEDIIS/GDIIS optimizer.
 FormGI is forming the generalized inverse of G from B-inverse, IUseBI=4.
 GSVD:  received Info=                   1 from GESDD.
 Internal  Forces:  Max     0.044666566 RMS     0.007526631
 Search for a local minimum.
 Step number   2 out of a maximum of   95
 All quantities printed in internal units (Hartrees-Bohrs-Radians)
 Mixed Optimization -- RFO/linear search
 Update second derivatives using D2CorX and points    1    2
 DE= -2.90D-02 DEPred=-2.64D-02 R= 1.10D+00
 TightC=F SS=  1.41D+00  RLast= 3.02D-01 DXNew= 5.0454D-01 9.0682D-01
 Trust test= 1.10D+00 RLast= 3.02D-01 DXMaxT set to 5.05D-01
 ITU=  1  0
 Use linear search instead of GDIIS.
     Eigenvalues ---    0.01429   0.01457   0.01458   0.01649   0.01653
     Eigenvalues ---    0.01764   0.01901   0.01944   0.01958   0.02024
     Eigenvalues ---    0.02079   0.02137   0.02151   0.02220   0.02226
     Eigenvalues ---    0.02265   0.03000   0.13427   0.15941   0.15999
     Eigenvalues ---    0.16000   0.16000   0.16006   0.19600   0.20948
     Eigenvalues ---    0.22008   0.22033   0.22861   0.24798   0.24924
     Eigenvalues ---    0.24994   0.24998   0.25000   0.25000   0.25000
     Eigenvalues ---    0.25652   0.33443   0.40532   0.42018   0.42387
     Eigenvalues ---    0.42480   0.42733   0.42811   0.44633   0.44662
     Eigenvalues ---    0.46573   0.48571   0.49039   0.50834   0.54932
     Eigenvalues ---    0.66858   0.74487   0.78383   0.93353
 RFO step:  Lambda=-1.65308230D-03 EMin= 1.42896367D-02
 Quartic linear search produced a step of  0.80113.
 Iteration  1 RMS(Cart)=  0.05552234 RMS(Int)=  0.00173203
 Iteration  2 RMS(Cart)=  0.00226419 RMS(Int)=  0.00025710
 Iteration  3 RMS(Cart)=  0.00000816 RMS(Int)=  0.00025700
 Iteration  4 RMS(Cart)=  0.00000000 RMS(Int)=  0.00025700
 Variable       Old X    -DE/DX   Delta X   Delta X   Delta X     New X
                                 (Linear)    (Quad)   (Total)
    R1        2.63828   0.00074   0.00487  -0.00632  -0.00145   2.63684
    R2        2.61297   0.00172   0.00385  -0.00102   0.00283   2.61581
    R3        2.42491   0.00929   0.01238   0.00168   0.01406   2.43897
    R4        2.40374   0.01229   0.01408   0.00471   0.01879   2.42253
    R5        2.31841   0.00079   0.00303  -0.00338  -0.00035   2.31806
    R6        2.67304  -0.00447  -0.00487  -0.00967  -0.01454   2.65850
    R7        2.56291   0.00707   0.00962   0.00613   0.01575   2.57866
    R8        2.45429  -0.00280  -0.00362  -0.00137  -0.00499   2.44930
    R9        2.68468   0.00072   0.00123   0.00075   0.00198   2.68666
   R10        1.94244  -0.00322  -0.00698  -0.00063  -0.00761   1.93483
   R11        2.59373   0.00216   0.00280   0.00262   0.00542   2.59914
   R12        1.91657  -0.00214  -0.00621   0.00284  -0.00338   1.91319
   R13        1.91755  -0.00221  -0.00495   0.00023  -0.00473   1.91282
   R14        2.61741  -0.00004   0.00050  -0.00085  -0.00035   2.61706
   R15        2.70915  -0.00054   0.00054  -0.00339  -0.00285   2.70630
   R16        2.65966   0.00519   0.01051   0.00165   0.01216   2.67182
   R17        2.17443  -0.04296  -0.15561  -0.00451  -0.16012   2.01431
   R18        2.60001  -0.00133  -0.00133  -0.00235  -0.00369   2.59633
   R19        2.17712  -0.04467  -0.16471  -0.00283  -0.16754   2.00959
   R20        2.07045  -0.00297  -0.01052   0.00487  -0.00564   2.06481
    A1        1.83336   0.00070   0.00657  -0.01070  -0.00413   1.82923
    A2        2.20908   0.00316   0.01492  -0.00972   0.00385   2.21293
    A3        2.02067  -0.00144  -0.00235  -0.00518  -0.00887   2.01180
    A4        2.05344  -0.00171  -0.01255   0.01500   0.00110   2.05453
    A5        2.08080  -0.00283  -0.00640  -0.00635  -0.01275   2.06804
    A6        2.06095  -0.00034  -0.00228   0.00287   0.00054   2.06149
    A7        2.09683   0.00006   0.00241  -0.00499  -0.00262   2.09421
    A8        2.11753   0.00045   0.00149   0.00166   0.00311   2.12064
    A9        2.03933  -0.00019  -0.00204   0.00477   0.00262   2.04195
   A10        2.16324   0.00051   0.00406  -0.00322   0.00072   2.16396
   A11        2.06168   0.00004   0.00080   0.00002   0.00069   2.06238
   A12        1.92124   0.00004  -0.00378   0.00858   0.00479   1.92603
   A13        2.07304  -0.00329  -0.00547  -0.01170  -0.01717   2.05586
   A14        2.28889   0.00325   0.00925   0.00314   0.01240   2.30128
   A15        1.86839  -0.00065  -0.00084  -0.00186  -0.00271   1.86568
   A16        2.05998   0.01116   0.03185   0.04041   0.07226   2.13224
   A17        2.35479  -0.01051  -0.03098  -0.03859  -0.06958   2.28521
   A18        2.09719  -0.00535  -0.01407  -0.00759  -0.02166   2.07552
   A19        1.94231  -0.00004  -0.00565   0.01160   0.00595   1.94825
   A20        2.24353   0.00540   0.01978  -0.00406   0.01572   2.25925
   A21        1.85948  -0.00005   0.00371  -0.00764  -0.00393   1.85555
   A22        2.35884  -0.00995  -0.02930  -0.03632  -0.06562   2.29322
   A23        2.06486   0.01000   0.02559   0.04396   0.06955   2.13441
   A24        2.06571   0.00309   0.01259  -0.00351   0.00902   2.07473
   A25        2.15894   0.00152   0.00467   0.00749   0.01210   2.17104
   A26        2.05851  -0.00460  -0.01718  -0.00415  -0.02138   2.03713
   A27        2.14722   0.00189   0.00821  -0.00435   0.00379   2.15101
   A28        2.18084   0.00079   0.00612  -0.00769  -0.00164   2.17920
   A29        1.95488  -0.00268  -0.01418   0.01148  -0.00277   1.95211
    D1        0.00069  -0.00009  -0.00140   0.00584   0.00443   0.00512
    D2       -3.13470  -0.00018  -0.00175   0.00295   0.00125  -3.13345
    D3        3.12538   0.00042   0.00360  -0.00507  -0.00150   3.12388
    D4        0.00174   0.00000   0.00024  -0.00216  -0.00189  -0.00015
    D5       -3.12998  -0.00023  -0.00585   0.05190   0.04598  -3.08399
    D6       -0.00978   0.00018  -0.00231   0.04860   0.04623   0.03646
    D7        0.01258  -0.00025   0.00136  -0.04500  -0.04358  -0.03100
    D8        3.13278   0.00015   0.00490  -0.04830  -0.04333   3.08945
    D9        3.10657   0.00018   0.00105   0.00460   0.00564   3.11221
   D10        0.09773  -0.00133  -0.01179   0.00827  -0.00351   0.09422
   D11        3.12578   0.00070   0.00813  -0.02247  -0.01441   3.11137
   D12       -0.00741   0.00018   0.00136   0.00232   0.00376  -0.00364
   D13        0.04560  -0.00070  -0.00747   0.01793   0.01048   0.05607
   D14       -3.11875  -0.00024  -0.00120  -0.00832  -0.00954  -3.12829
   D15        3.05279   0.00080   0.00561   0.01368   0.01931   3.07210
   D16       -0.11156   0.00127   0.01188  -0.01257  -0.00070  -0.11226
   D17       -0.07566   0.00115   0.01028  -0.01129  -0.00098  -0.07664
   D18        3.08922   0.00066   0.00384   0.01550   0.01933   3.10855
   D19       -3.00503  -0.00082  -0.00470  -0.02005  -0.02475  -3.02978
   D20        0.15985  -0.00131  -0.01115   0.00674  -0.00444   0.15541
   D21       -0.00275   0.00015   0.00203  -0.00727  -0.00525  -0.00801
   D22       -3.13686  -0.00001  -0.00019  -0.00162  -0.00173  -3.13859
   D23        3.13162   0.00022   0.00235  -0.00397  -0.00163   3.12999
   D24       -0.00249   0.00006   0.00013   0.00167   0.00190  -0.00060
   D25       -3.12126  -0.00046  -0.00555   0.01817   0.01255  -3.10870
   D26        0.01242   0.00006   0.00102  -0.00513  -0.00409   0.00833
   D27        0.02808  -0.00054  -0.00591   0.01456   0.00862   0.03670
   D28       -3.12143  -0.00003   0.00066  -0.00874  -0.00802  -3.12945
   D29        0.00370  -0.00014  -0.00178   0.00567   0.00388   0.00759
   D30       -3.13612  -0.00021  -0.00211   0.00433   0.00226  -3.13386
   D31        3.13597   0.00021   0.00163  -0.00081   0.00088   3.13685
   D32       -0.00386   0.00015   0.00130  -0.00215  -0.00074  -0.00460
   D33       -0.00343   0.00009   0.00097  -0.00219  -0.00123  -0.00466
   D34        3.13675   0.00012   0.00116  -0.00120   0.00006   3.13681
   D35       -3.12517  -0.00022  -0.00216   0.00105  -0.00117  -3.12634
   D36        0.01501  -0.00019  -0.00197   0.00204   0.00012   0.01512
         Item               Value     Threshold  Converged?
 Maximum Force            0.044667     0.000450     NO 
 RMS     Force            0.007527     0.000300     NO 
 Maximum Displacement     0.285079     0.001800     NO 
 RMS     Displacement     0.054915     0.001200     NO 
 Predicted change in Energy=-1.272947D-02
 GradGradGradGradGradGradGradGradGradGradGradGradGradGradGradGradGradGrad

                          Input orientation:                          
 ---------------------------------------------------------------------
 Center     Atomic      Atomic             Coordinates (Angstroms)
 Number     Number       Type             X           Y           Z
 ---------------------------------------------------------------------
      1          8           0        8.035909    5.832385   -5.252664
      2          8           0        4.622862    6.782355   -5.187578
      3          8           0        5.611104    4.718421   -5.421139
      4          8           0       13.638327    8.643235   -4.917471
      5          7           0        5.637052    5.984977   -5.224784
      6          7           0       11.424744    7.037047   -5.136594
      7          7           0       12.690461    6.529405   -5.184618
      8          7           0       14.992467    6.792182   -5.172355
      9          6           0        9.093812    6.738052   -5.165377
     10          6           0        8.612630    8.027012   -5.007387
     11          6           0        6.895258    6.609828   -5.149814
     12          6           0        7.201371    7.941279   -5.004274
     13          6           0       10.425835    6.219282   -5.252170
     14          6           0       13.780472    7.437637   -5.093628
     15          1           0        9.261346    8.868621   -4.923317
     16          1           0        6.451637    8.690061   -4.914267
     17          1           0       10.524646    5.139901   -5.390205
     18          1           0       12.836474    5.537415   -5.391834
     19          1           0       15.823411    7.369934   -5.145430
     20          1           0       15.098181    5.813971   -5.410095
 ---------------------------------------------------------------------
                    Distance matrix (angstroms):
                    1          2          3          4          5
     1  O    0.000000
     2  O    3.543384   0.000000
     3  O    2.673757   2.300217   0.000000
     4  O    6.276967   9.209475   8.949533   0.000000
     5  N    2.403867   1.290650   1.281949   8.436893   0.000000
     6  N    3.598456   6.806839   6.265413   2.743685   5.883197
     7  N    4.706944   8.071564   7.311149   2.331972   7.074503
     8  N    7.022917  10.369621   9.611054   2.307609   9.390321
     9  C    1.395353   4.471224   4.034052   4.933943   3.538338
    10  C    2.282358   4.183287   4.486327   5.064133   3.615416
    11  C    1.384226   2.279249   2.302192   7.046822   1.406819
    12  C    2.281575   2.832916   3.617946   6.475699   2.514524
    13  C    2.421040   5.830585   5.046064   4.038277   4.794589
    14  C    5.966752   9.181506   8.616262   1.226663   8.273011
    15  H    3.290729   5.092924   5.549437   4.382784   4.641313
    16  H    3.284927   2.656777   4.091130   7.186843   2.842085
    17  H    2.586941   6.129418   4.931683   4.710821   4.962872
    18  H    4.811632   8.309935   7.271698   3.242546   7.215255
    19  H    7.938560  11.216029  10.554513   2.539262  10.280384
    20  H    7.064051  10.522338   9.550130   3.221582   9.464489
                    6          7          8          9         10
     6  N    0.000000
     7  N    1.364568   0.000000
     8  N    3.576295   2.316988   0.000000
     9  C    2.350206   3.602748   5.898908   0.000000
    10  C    2.984076   4.347752   6.500334   1.384888   0.000000
    11  C    4.549608   5.795866   8.099294   2.202345   2.231158
    12  C    4.321114   5.670628   7.877173   2.248342   1.413864
    13  C    1.296116   2.286760   4.603120   1.432111   2.572065
    14  C    2.389932   1.421721   1.375406   4.739130   5.202057
    15  H    2.842612   4.159212   6.100768   2.150810   1.065929
    16  H    5.245348   6.607908   8.752961   3.294614   2.262343
    17  H    2.115102   2.581422   4.768534   2.156831   3.483930
    18  H    2.075338   1.023866   2.504180   3.937047   4.918003
    19  H    4.411254   3.243978   1.012417   6.759229   7.241972
    20  H    3.881348   2.521865   1.012221   6.079989   6.864554
                   11         12         13         14         15
    11  C    0.000000
    12  C    1.373917   0.000000
    13  C    3.553586   3.663863   0.000000
    14  C    6.935027   6.598955   3.572551   0.000000
    15  H    3.278997   2.260534   2.912590   4.743335   0.000000
    16  H    2.140012   1.063427   4.691820   7.437241   2.815391
    17  H    3.923128   4.363578   1.092648   3.995992   3.964500
    18  H    6.042077   6.138661   2.509110   2.142640   4.908970
    19  H    8.960451   8.642102   5.519893   2.044716   6.734693
    20  H    8.245550   8.188391   4.692552   2.114900   6.605792
                   16         17         18         19         20
    16  H    0.000000
    17  H    5.423980   0.000000
    18  H    7.136764   2.345756   0.000000
    19  H    9.467117   5.754117   3.512923   0.000000
    20  H    9.125813   4.622985   2.278626   1.736958   0.000000
 Stoichiometry    C6H6N4O4
 Framework group  C1[X(C6H6N4O4)]
 Deg. of freedom    54
 Full point group                 C1      NOp   1
 Largest Abelian subgroup         C1      NOp   1
 Largest concise Abelian subgroup C1      NOp   1
                         Standard orientation:                         
 ---------------------------------------------------------------------
 Center     Atomic      Atomic             Coordinates (Angstroms)
 Number     Number       Type             X           Y           Z
 ---------------------------------------------------------------------
      1          8           0        1.627129   -0.749503   -0.026058
      2          8           0        4.891111    0.628044    0.039934
      3          8           0        4.175589   -1.557786    0.005732
      4          8           0       -4.290295    1.344368   -0.015660
      5          7           0        3.986721   -0.290265   -0.027623
      6          7           0       -1.888285    0.018546    0.003027
      7          7           0       -3.078716   -0.648160   -0.017558
      8          7           0       -5.395418   -0.681365   -0.002587
      9          6           0        0.461919    0.017714   -0.000097
     10          6           0        0.773728    1.367014    0.008859
     11          6           0        2.658588    0.173630   -0.025800
     12          6           0        2.184304    1.462854   -0.001256
     13          6           0       -0.792343   -0.673302    0.016168
     14          6           0       -4.276148    0.117960    0.004967
     15          1           0        0.022529    2.122935    0.030976
     16          1           0        2.831836    2.306365    0.007006
     17          1           0       -0.751722   -1.765195    0.015196
     18          1           0       -3.095050   -1.668870    0.061096
     19          1           0       -6.293155   -0.215464    0.042065
     20          1           0       -5.373114   -1.687257    0.108211
 ---------------------------------------------------------------------
 Rotational constants (GHZ):      2.9859401      0.2219700      0.2066254
 Standard basis: 3-21G (6D, 7F)
 There are   138 symmetry adapted cartesian basis functions of A   symmetry.
 There are   138 symmetry adapted basis functions of A   symmetry.
   138 basis functions,   228 primitive gaussians,   138 cartesian basis functions
    51 alpha electrons       51 beta electrons
       nuclear repulsion energy       817.3522468179 Hartrees.
 NAtoms=   20 NActive=   20 NUniq=   20 SFac= 1.00D+00 NAtFMM=   60 NAOKFM=F Big=F
 Integral buffers will be    131072 words long.
 Raffenetti 2 integral format.
 Two-electron integral symmetry is turned on.
 One-electron integrals computed using PRISM.
 PrsmSu:  requested number of processors reduced to:  10 ShMem   1 Linda.
 NBasis=   138 RedAO= T EigKep=  2.38D-03  NBF=   138
 NBsUse=   138 1.00D-06 EigRej= -1.00D+00 NBFU=   138
 Initial guess from the checkpoint file:  "/tmp/scratch/63916.prometeo/Gau-27691.chk"
 B after Tr=     0.000000    0.000000    0.000000
         Rot=    1.000000   -0.000242   -0.000015    0.000609 Ang=  -0.08 deg.
 ExpMin= 1.83D-01 ExpMax= 3.22D+02 ExpMxC= 3.22D+02 IAcc=1 IRadAn=         1 AccDes= 0.00D+00
 Harris functional with IExCor=  402 and IRadAn=       1 diagonalized for initial guess.
 HarFok:  IExCor=  402 AccDes= 0.00D+00 IRadAn=         1 IDoV= 1 UseB2=F ITyADJ=14
 ICtDFT=  3500011 ScaDFX=  1.000000  1.000000  1.000000  1.000000
 FoFCou: FMM=F IPFlag=           0 FMFlag=      100000 FMFlg1=           0
         NFxFlg=           0 DoJE=T BraDBF=F KetDBF=T FulRan=T
         wScrn=  0.000000 ICntrl=     500 IOpCl=  0 I1Cent=   200000004 NGrid=           0
         NMat0=    1 NMatS0=      1 NMatT0=    0 NMatD0=    1 NMtDS0=    0 NMtDT0=    0
 Petite list used in FoFCou.
 Requested convergence on RMS density matrix=1.00D-08 within 128 cycles.
 Requested convergence on MAX density matrix=1.00D-06.
 Requested convergence on             energy=1.00D-06.
 No special actions if energy rises.
 Integral accuracy reduced to 1.0D-05 until final iterations.
 Initial convergence to 1.0D-05 achieved.  Increase integral accuracy.
 SCF Done:  E(RB3LYP) =  -747.804743401     A.U. after   15 cycles
            NFock= 15  Conv=0.81D-08     -V/T= 2.0079
 PrsmSu:  requested number of processors reduced to:  10 ShMem   1 Linda.
 Calling FoFJK, ICntrl=      2127 FMM=F ISym2X=0 I1Cent= 0 IOpClX= 0 NMat=1 NMatS=1 NMatT=0.
 ***** Axes restored to original set *****
 -------------------------------------------------------------------
 Center     Atomic                   Forces (Hartrees/Bohr)
 Number     Number              X              Y              Z
 -------------------------------------------------------------------
      1        8           0.000039983    0.001897638    0.000071147
      2        8          -0.002440668    0.001756453    0.004402820
      3        8           0.000787657   -0.003435728    0.003637243
      4        8          -0.000037732    0.000808598   -0.001402883
      5        7           0.002778466    0.001438480   -0.010641728
      6        7          -0.001897632    0.001258657    0.001390662
      7        7           0.004250119   -0.001992109   -0.005627627
      8        7           0.000069543   -0.000954271   -0.004601781
      9        6           0.000284583    0.001128587   -0.000275188
     10        6           0.004306717   -0.009908571   -0.001993141
     11        6          -0.004102601    0.001395034    0.001457230
     12        6          -0.000841737   -0.011839265   -0.000044134
     13        6           0.001999929   -0.000612335    0.001715683
     14        6          -0.001039399    0.000887689    0.006080790
     15        1           0.000735944    0.008607581    0.001071222
     16        1          -0.002722373    0.008984900    0.000997489
     17        1          -0.001263065    0.000748890   -0.000118319
     18        1          -0.000157341    0.000084428    0.001866226
     19        1          -0.000781385   -0.000136805    0.000879494
     20        1           0.000030992   -0.000117853    0.001134797
 -------------------------------------------------------------------
 Cartesian Forces:  Max     0.011839265 RMS     0.003581522

 GradGradGradGradGradGradGradGradGradGradGradGradGradGradGradGradGradGrad
 Berny optimization.
 Using GEDIIS/GDIIS optimizer.
 FormGI is forming the generalized inverse of G from B-inverse, IUseBI=4.
 GSVD:  received Info=                   1 from GESDD.
 Internal  Forces:  Max     0.008330059 RMS     0.002257154
 Search for a local minimum.
 Step number   3 out of a maximum of   95
 All quantities printed in internal units (Hartrees-Bohrs-Radians)
 Mixed Optimization -- RFO/linear search
 Update second derivatives using D2CorX and points    1    2    3
 DE= -9.12D-03 DEPred=-1.27D-02 R= 7.16D-01
 TightC=F SS=  1.41D+00  RLast= 2.95D-01 DXNew= 8.4853D-01 8.8393D-01
 Trust test= 7.16D-01 RLast= 2.95D-01 DXMaxT set to 8.49D-01
 ITU=  1  1  0
 Use linear search instead of GDIIS.
     Eigenvalues ---    0.01429   0.01457   0.01574   0.01647   0.01649
     Eigenvalues ---    0.01773   0.01905   0.01948   0.01958   0.02024
     Eigenvalues ---    0.02079   0.02152   0.02164   0.02195   0.02225
     Eigenvalues ---    0.02270   0.03000   0.13763   0.15948   0.15999
     Eigenvalues ---    0.16000   0.16000   0.16008   0.20934   0.21980
     Eigenvalues ---    0.22020   0.22860   0.24601   0.24816   0.24980
     Eigenvalues ---    0.24992   0.24998   0.25000   0.25000   0.25298
     Eigenvalues ---    0.33144   0.33820   0.40537   0.42094   0.42372
     Eigenvalues ---    0.42503   0.42711   0.42829   0.44624   0.44656
     Eigenvalues ---    0.46532   0.48560   0.49163   0.50828   0.54819
     Eigenvalues ---    0.66853   0.74083   0.78016   0.93335
 RFO step:  Lambda=-5.16195577D-03 EMin= 1.42877198D-02
 Quartic linear search produced a step of -0.07306.
 Iteration  1 RMS(Cart)=  0.05708551 RMS(Int)=  0.00805328
 Iteration  2 RMS(Cart)=  0.00829426 RMS(Int)=  0.00487040
 Iteration  3 RMS(Cart)=  0.00014115 RMS(Int)=  0.00486921
 Iteration  4 RMS(Cart)=  0.00000365 RMS(Int)=  0.00486921
 Iteration  5 RMS(Cart)=  0.00000011 RMS(Int)=  0.00486921
 Variable       Old X    -DE/DX   Delta X   Delta X   Delta X     New X
                                 (Linear)    (Quad)   (Total)
    R1        2.63684   0.00104   0.00011   0.00228   0.00238   2.63921
    R2        2.61581   0.00111  -0.00021   0.00308   0.00289   2.61870
    R3        2.43897   0.00313  -0.00103   0.00825   0.00722   2.44620
    R4        2.42253   0.00282  -0.00137   0.00887   0.00750   2.43003
    R5        2.31806   0.00060   0.00003   0.00085   0.00088   2.31893
    R6        2.65850  -0.00076   0.00106  -0.00534  -0.00428   2.65422
    R7        2.57866   0.00275  -0.00115   0.00909   0.00794   2.58660
    R8        2.44930   0.00021   0.00036  -0.00118  -0.00081   2.44849
    R9        2.68666  -0.00090  -0.00014  -0.00138  -0.00153   2.68514
   R10        1.93483  -0.00048   0.00056  -0.00351  -0.00295   1.93187
   R11        2.59914   0.00011  -0.00040   0.00169   0.00130   2.60044
   R12        1.91319  -0.00070   0.00025  -0.00289  -0.00264   1.91055
   R13        1.91282  -0.00015   0.00035  -0.00191  -0.00156   1.91126
   R14        2.61706  -0.00210   0.00003  -0.00399  -0.00398   2.61308
   R15        2.70630   0.00102   0.00021   0.00176   0.00197   2.70827
   R16        2.67182   0.00447  -0.00089   0.01293   0.01204   2.68385
   R17        2.01431   0.00733   0.01170  -0.02469  -0.01299   2.00133
   R18        2.59633  -0.00187   0.00027  -0.00443  -0.00414   2.59218
   R19        2.00959   0.00833   0.01224  -0.02264  -0.01040   1.99918
   R20        2.06481  -0.00084   0.00041  -0.00481  -0.00440   2.06041
    A1        1.82923   0.00336   0.00030   0.01182   0.01212   1.84135
    A2        2.21293   0.00105  -0.00028   0.01742  -0.00932   2.20361
    A3        2.01180   0.00059   0.00065   0.01069  -0.01367   1.99813
    A4        2.05453  -0.00083  -0.00008   0.00638  -0.01865   2.03588
    A5        2.06804  -0.00078   0.00093  -0.00647  -0.00554   2.06250
    A6        2.06149  -0.00064  -0.00004  -0.00147  -0.00207   2.05943
    A7        2.09421   0.00025   0.00019   0.00284   0.00248   2.09668
[...]

                          Input orientation:                          
 ---------------------------------------------------------------------
 Center     Atomic      Atomic             Coordinates (Angstroms)
 Number     Number       Type             X           Y           Z
 ---------------------------------------------------------------------
      1          8           0        8.048909    5.864056   -5.283793
      2          8           0        4.607781    6.697540   -5.150789
      3          8           0        5.677283    4.671474   -5.428354
      4          8           0       13.687398    8.637887   -4.948840
      5          7           0        5.653459    5.944378   -5.258031
      6          7           0       11.437738    7.071764   -5.143832
      7          7           0       12.698217    6.542160   -5.222670
      8          7           0       14.998580    6.754729   -5.209081
      9          6           0        9.095361    6.782646   -5.167642
     10          6           0        8.588060    8.054353   -4.994465
     11          6           0        6.886572    6.612511   -5.176470
     12          6           0        7.170740    7.940676   -5.000702
     13          6           0       10.429567    6.264482   -5.245347
     14          6           0       13.802688    7.427362   -5.111441
     15          1           0        9.179642    8.944936   -4.879177
     16          1           0        6.437744    8.718323   -4.892149
     17          1           0       10.508885    5.185298   -5.390155
     18          1           0       12.823204    5.536182   -5.358121
     19          1           0       15.843413    7.306484   -5.140596
     20          1           0       15.082761    5.755759   -5.343346
 ---------------------------------------------------------------------
                    Distance matrix (angstroms):
                    1          2          3          4          5
     1  O    0.000000
     2  O    3.543127   0.000000
     3  O    2.658526   2.307773   0.000000
     4  O    6.292764   9.286827   8.951218   0.000000
     5  N    2.396935   1.293134   1.284469   8.479078   0.000000
     6  N    3.600320   6.840205   6.247014   2.748042   5.894228
     7  N    4.698896   8.092247   7.268789   2.333567   7.070164
     8  N    7.006911  10.391119   9.553775   2.309374   9.380317
     9  C    1.397269   4.488418   4.025950   4.957479   3.543663
    10  C    2.274158   4.208087   4.483833   5.132820   3.623996
    11  C    1.386626   2.280521   2.300750   7.099662   1.404856
    12  C    2.272372   2.852485   3.619528   6.554054   2.520628
    13  C    2.414405   5.838636   5.015513   4.041587   4.786840
    14  C    5.964863   9.223909   8.585893   1.226826   8.284362
    15  H    3.306674   5.101615   5.552531   4.518738   4.645519
    16  H    3.300921   2.738471   4.152446   7.250321   2.905812
    17  H    2.554115   6.096490   4.858997   4.713605   4.916179
    18  H    4.786117   8.299693   7.198392   3.245754   7.182053
    19  H    7.928139  11.252126  10.506012   2.541221  10.281259
    20  H    7.034937  10.518994   9.468153   3.226350   9.431574
                    6          7          8          9         10
     6  N    0.000000
     7  N    1.369491   0.000000
     8  N    3.575523   2.310203   0.000000
     9  C    2.360273   3.611293   5.903431   0.000000
    10  C    3.018022   4.385453   6.544451   1.380066   0.000000
    11  C    4.574395   5.812255   8.113320   2.215349   2.237654
    12  C    4.356922   5.705973   7.919910   2.252347   1.421886
    13  C    1.295538   2.285693   4.595382   1.433401   2.580257
    14  C    2.391754   1.419792   1.375546   4.751604   5.253488
    15  H    2.945813   4.274540   6.226225   2.183074   1.075360
    16  H    5.270146   6.636148   8.788859   3.299343   2.252817
    17  H    2.117120   2.581144   4.759544   2.144548   3.475287
    18  H    2.079291   1.022722   2.497865   3.935324   4.940635
    19  H    4.411924   3.237774   1.011369   6.768408   7.295259
    20  H    3.880447   2.513770   1.011462   6.077362   6.898289
                   11         12         13         14         15
    11  C    0.000000
    12  C    1.369550   0.000000
    13  C    3.560714   3.672796   0.000000
    14  C    6.964257   6.652705   3.570457   0.000000
    15  H    3.284321   2.249221   2.980139   4.871296   0.000000
    16  H    2.171803   1.074151   4.699014   7.480445   2.751277
    17  H    3.899199   4.345917   1.091741   3.994204   4.020307
    18  H    6.036148   6.153023   2.504523   2.144015   5.012438
    19  H    8.983757   8.696955   5.514206   2.044510   6.867219
    20  H    8.242536   8.215312   4.681946   2.118165   6.725557
                   16         17         18         19         20
    16  H    0.000000
    17  H    5.413360   0.000000
    18  H    7.149633   2.340987   0.000000
    19  H    9.514285   5.746207   3.507556   0.000000
    20  H    9.149682   4.609551   2.270249   1.739094   0.000000
 Stoichiometry    C6H6N4O4
 Framework group  C1[X(C6H6N4O4)]
 Deg. of freedom    54
 Full point group                 C1      NOp   1
 Largest Abelian subgroup         C1      NOp   1
 Largest concise Abelian subgroup C1      NOp   1
                         Standard orientation:                         
 ---------------------------------------------------------------------
 Center     Atomic      Atomic             Coordinates (Angstroms)
 Number     Number       Type             X           Y           Z
 ---------------------------------------------------------------------
      1          8           0        1.619771   -0.715057   -0.000117
      2          8           0        4.923196    0.566011    0.000138
      3          8           0        4.126704   -1.599957    0.000042
      4          8           0       -4.332386    1.327174    0.000013
      5          7           0        3.984489   -0.323385    0.000053
      6          7           0       -1.897725    0.052749   -0.000109
      7          7           0       -3.078540   -0.640923   -0.000073
      8          7           0       -5.387129   -0.727266    0.000163
      9          6           0        0.462499    0.067938   -0.000094
     10          6           0        0.799826    1.406143   -0.000030
     11          6           0        2.674764    0.184789   -0.000002
     12          6           0        2.219964    1.476619   -0.000002
     13          6           0       -0.792911   -0.623862   -0.000129
     14          6           0       -4.288990    0.101116    0.000039
     15          1           0        0.097222    2.220236   -0.000004
     16          1           0        2.845443    2.349875    0.000063
     17          1           0       -0.730958   -1.713844   -0.000108
     18          1           0       -3.071406   -1.663619    0.000088
     19          1           0       -6.296698   -0.285055    0.000088
     20          1           0       -5.340448   -1.737650    0.000334
 ---------------------------------------------------------------------
 Rotational constants (GHZ):      2.9492030      0.2212649      0.2058230

 **********************************************************************

            Population analysis using the SCF density.

 **********************************************************************

 Orbital symmetries:
       Occupied  (A) (A) (A) (A) (A) (A) (A) (A) (A) (A) (A) (A)
                 (A) (A) (A) (A) (A) (A) (A) (A) (A) (A) (A) (A)
                 (A) (A) (A) (A) (A) (A) (A) (A) (A) (A) (A) (A)
                 (A) (A) (A) (A) (A) (A) (A) (A) (A) (A) (A) (A)
                 (A) (A) (A)
       Virtual   (A) (A) (A) (A) (A) (A) (A) (A) (A) (A) (A) (A)
                 (A) (A) (A) (A) (A) (A) (A) (A) (A) (A) (A) (A)
                 (A) (A) (A) (A) (A) (A) (A) (A) (A) (A) (A) (A)
                 (A) (A) (A) (A) (A) (A) (A) (A) (A) (A) (A) (A)
                 (A) (A) (A) (A) (A) (A) (A) (A) (A) (A) (A) (A)
                 (A) (A) (A) (A) (A) (A) (A) (A) (A) (A) (A) (A)
                 (A) (A) (A) (A) (A) (A) (A) (A) (A) (A) (A) (A)
                 (A) (A) (A)
 The electronic state is 1-A.
 Alpha  occ. eigenvalues --  -19.15178 -19.06091 -19.05837 -19.01313 -14.47846
 Alpha  occ. eigenvalues --  -14.34222 -14.32850 -14.29023 -10.27718 -10.24925
 Alpha  occ. eigenvalues --  -10.22886 -10.19823 -10.17178 -10.16040  -1.19605
 Alpha  occ. eigenvalues --   -1.14981  -1.07974  -1.03001  -1.02703  -0.93347
 Alpha  occ. eigenvalues --   -0.87392  -0.85163  -0.82611  -0.74388  -0.66929
 Alpha  occ. eigenvalues --   -0.64506  -0.62673  -0.58826  -0.58250  -0.56167
 Alpha  occ. eigenvalues --   -0.54048  -0.52703  -0.52403  -0.49481  -0.48210
 Alpha  occ. eigenvalues --   -0.47411  -0.46017  -0.44610  -0.44152  -0.41135
 Alpha  occ. eigenvalues --   -0.40414  -0.39619  -0.31616  -0.30426  -0.30241
 Alpha  occ. eigenvalues --   -0.28458  -0.27977  -0.27368  -0.27361  -0.26967
 Alpha  occ. eigenvalues --   -0.23274
 Alpha virt. eigenvalues --   -0.10065  -0.04715   0.03945   0.05218   0.05896
 Alpha virt. eigenvalues --    0.08027   0.08613   0.11185   0.12217   0.13162
 Alpha virt. eigenvalues --    0.14416   0.16974   0.17927   0.19473   0.22640
 Alpha virt. eigenvalues --    0.23567   0.24522   0.29891   0.31377   0.34782
 Alpha virt. eigenvalues --    0.37748   0.40918   0.42317   0.45749   0.50868
 Alpha virt. eigenvalues --    0.66430   0.67618   0.68617   0.69761   0.70699
 Alpha virt. eigenvalues --    0.70946   0.72319   0.73081   0.76551   0.76816
 Alpha virt. eigenvalues --    0.76986   0.79075   0.79366   0.84431   0.86349
 Alpha virt. eigenvalues --    0.88771   0.95400   0.96274   1.00205   1.05450
 Alpha virt. eigenvalues --    1.06500   1.07855   1.08642   1.08656   1.10425
 Alpha virt. eigenvalues --    1.11214   1.15857   1.17618   1.19918   1.23208
 Alpha virt. eigenvalues --    1.29181   1.34016   1.35356   1.37940   1.43786
 Alpha virt. eigenvalues --    1.44144   1.45808   1.48648   1.50755   1.54150
 Alpha virt. eigenvalues --    1.56096   1.56959   1.58336   1.63039   1.63853
 Alpha virt. eigenvalues --    1.64084   1.65231   1.69136   1.69774   1.75829
 Alpha virt. eigenvalues --    1.78187   1.80247   1.95091   2.23438   2.44999
 Alpha virt. eigenvalues --    2.57359   2.67825   2.74359   2.85695   2.87744
 Alpha virt. eigenvalues --    3.32578   3.43680
          Condensed to atoms (all electrons):
               1          2          3          4          5          6
     1  O    8.176173   0.000300   0.000300   0.000000  -0.020459   0.000605
     2  O    0.000300   8.238264  -0.047648   0.000000   0.188905   0.000000
     3  O    0.000300  -0.047648   8.241170   0.000000   0.156543   0.000000
     4  O    0.000000   0.000000   0.000000   8.018401   0.000000   0.001265
     5  N   -0.020459   0.188905   0.156543   0.000000   6.713228   0.000000
     6  N    0.000605   0.000000   0.000000   0.001265   0.000000   6.781157
     7  N   -0.000002   0.000000   0.000000  -0.066114   0.000000   0.214449
     8  N    0.000000   0.000000   0.000000  -0.068978   0.000000   0.001526
     9  C    0.267760  -0.000031   0.000260   0.000002  -0.001889  -0.087892
    10  C   -0.080559   0.000352  -0.000063   0.000000   0.005100   0.000933
    11  C    0.276010  -0.091408  -0.066034   0.000000   0.021726  -0.000063
    12  C   -0.088503   0.012379   0.003113   0.000000  -0.055136   0.000230
    13  C   -0.022467   0.000000   0.000003   0.000285  -0.000053   0.456001
    14  C    0.000000   0.000000   0.000000   0.598573   0.000000  -0.043833
    15  H    0.001590   0.000000   0.000000   0.000001  -0.000004   0.002054
    16  H    0.001672   0.004668   0.000016   0.000000  -0.003351   0.000000
    17  H    0.000935   0.000000   0.000000  -0.000001  -0.000003  -0.049783
    18  H    0.000000   0.000000   0.000000   0.001090   0.000000  -0.027972
    19  H    0.000000   0.000000   0.000000   0.001299   0.000000  -0.000032
    20  H    0.000000   0.000000   0.000000   0.001578   0.000000  -0.000003
               7          8          9         10         11         12
     1  O   -0.000002   0.000000   0.267760  -0.080559   0.276010  -0.088503
     2  O    0.000000   0.000000  -0.000031   0.000352  -0.091408   0.012379
     3  O    0.000000   0.000000   0.000260  -0.000063  -0.066034   0.003113
     4  O   -0.066114  -0.068978   0.000002   0.000000   0.000000   0.000000
     5  N    0.000000   0.000000  -0.001889   0.005100   0.021726  -0.055136
     6  N    0.214449   0.001526  -0.087892   0.000933  -0.000063   0.000230
     7  N    7.233293  -0.103472   0.005920  -0.000111   0.000000  -0.000001
     8  N   -0.103472   7.147508   0.000000   0.000000   0.000000   0.000000
     9  C    0.005920   0.000000   5.180737   0.319955  -0.160628  -0.076198
    10  C   -0.000111   0.000000   0.319955   5.409225  -0.074853   0.325608
    11  C    0.000000   0.000000  -0.160628  -0.074853   5.253364   0.216705
    12  C   -0.000001   0.000000  -0.076198   0.325608   0.216705   5.469475
    13  C   -0.087641  -0.000047   0.336974  -0.066104  -0.000372   0.007266
    14  C    0.078121   0.159924  -0.000044   0.000003   0.000000   0.000000
    15  H   -0.000017   0.000000  -0.028077   0.384171   0.004954  -0.025501
    16  H    0.000000   0.000000   0.004972  -0.023259  -0.033818   0.378441
    17  H   -0.009866   0.000004  -0.067434   0.005045  -0.000200  -0.000011
    18  H    0.288515   0.004094  -0.000854   0.000028   0.000000   0.000000
    19  H    0.003528   0.323975   0.000000   0.000000   0.000000   0.000000
    20  H    0.002242   0.311899   0.000000   0.000000   0.000000   0.000000
              13         14         15         16         17         18
     1  O   -0.022467   0.000000   0.001590   0.001672   0.000935   0.000000
     2  O    0.000000   0.000000   0.000000   0.004668   0.000000   0.000000
     3  O    0.000003   0.000000   0.000000   0.000016   0.000000   0.000000
     4  O    0.000285   0.598573   0.000001   0.000000  -0.000001   0.001090
     5  N   -0.000053   0.000000  -0.000004  -0.003351  -0.000003   0.000000
     6  N    0.456001  -0.043833   0.002054   0.000000  -0.049783  -0.027972
     7  N   -0.087641   0.078121  -0.000017   0.000000  -0.009866   0.288515
     8  N   -0.000047   0.159924   0.000000   0.000000   0.000004   0.004094
     9  C    0.336974  -0.000044  -0.028077   0.004972  -0.067434  -0.000854
    10  C   -0.066104   0.000003   0.384171  -0.023259   0.005045   0.000028
    11  C   -0.000372   0.000000   0.004954  -0.033818  -0.000200   0.000000
    12  C    0.007266   0.000000  -0.025501   0.378441  -0.000011   0.000000
    13  C    5.003376   0.006298  -0.001325  -0.000020   0.324020  -0.006899
    14  C    0.006298   4.352559   0.000002   0.000000  -0.000335  -0.027124
    15  H   -0.001325   0.000002   0.429512  -0.000917   0.000040   0.000002
    16  H   -0.000020   0.000000  -0.000917   0.432801   0.000000   0.000000
    17  H    0.324020  -0.000335   0.000040   0.000000   0.576830   0.014409
    18  H   -0.006899  -0.027124   0.000002   0.000000   0.014409   0.442064
    19  H    0.000001  -0.024087   0.000000   0.000000   0.000000  -0.000105
    20  H   -0.000027  -0.014523   0.000000   0.000000   0.000008   0.003949
              19         20
     1  O    0.000000   0.000000
     2  O    0.000000   0.000000
     3  O    0.000000   0.000000
     4  O    0.001299   0.001578
     5  N    0.000000   0.000000
     6  N   -0.000032  -0.000003
     7  N    0.003528   0.002242
     8  N    0.323975   0.311899
     9  C    0.000000   0.000000
    10  C    0.000000   0.000000
    11  C    0.000000   0.000000
    12  C    0.000000   0.000000
    13  C    0.000001  -0.000027
    14  C   -0.024087  -0.014523
    15  H    0.000000   0.000000
    16  H    0.000000   0.000000
    17  H    0.000000   0.000008
    18  H   -0.000105   0.003949
    19  H    0.382062  -0.021336
    20  H   -0.021336   0.408580
 Mulliken charges:
               1
     1  O   -0.513354
     2  O   -0.305781
     3  O   -0.287660
     4  O   -0.487401
     5  N   -0.004607
     6  N   -0.248645
     7  N   -0.558844
     8  N   -0.776433
     9  C    0.306468
    10  C   -0.205471
    11  C    0.654618
    12  C   -0.167867
    13  C    0.050729
    14  C    0.914467
    15  H    0.233515
    16  H    0.238796
    17  H    0.206342
    18  H    0.308802
    19  H    0.334696
    20  H    0.307632
 Sum of Mulliken charges =   0.00000
 Mulliken charges with hydrogens summed into heavy atoms:
               1
     1  O   -0.513354
     2  O   -0.305781
     3  O   -0.287660
     4  O   -0.487401
     5  N   -0.004607
     6  N   -0.248645
     7  N   -0.250042
     8  N   -0.134105
     9  C    0.306468
    10  C    0.028044
    11  C    0.654618
    12  C    0.070928
    13  C    0.257071
    14  C    0.914467
 Electronic spatial extent (au):  <R**2>=           4747.9076
 Charge=              0.0000 electrons
 Dipole moment (field-independent basis, Debye):
    X=             -6.7942    Y=             -2.8718    Z=              0.0005  Tot=              7.3762
 Quadrupole moment (field-independent basis, Debye-Ang):
   XX=            -81.4749   YY=            -74.6143   ZZ=            -79.4655
   XY=             27.6172   XZ=             -0.0028   YZ=             -0.0010
 Traceless Quadrupole moment (field-independent basis, Debye-Ang):
   XX=             -2.9567   YY=              3.9039   ZZ=             -0.9473
   XY=             27.6172   XZ=             -0.0028   YZ=             -0.0010
 Octapole moment (field-independent basis, Debye-Ang**2):
  XXX=           -291.7478  YYY=             -8.4617  ZZZ=              0.0012  XYY=            -14.8624
  XXY=            -71.2488  XXZ=              0.0055  XZZ=              8.3114  YZZ=             -3.7921
  YYZ=              0.0028  XYZ=              0.0047
 Hexadecapole moment (field-independent basis, Debye-Ang**3):
 XXXX=          -4745.0935 YYYY=           -425.6700 ZZZZ=            -66.4800 XXXY=            416.4518
 XXXZ=             -0.0653 YYYX=             96.2213 YYYZ=             -0.0024 ZZZX=              0.0029
 ZZZY=              0.0000 XXYY=           -950.1221 XXZZ=           -883.6763 YYZZ=            -93.5493
 XXYZ=             -0.0245 YYXZ=             -0.0089 ZZXY=            -20.7644
 N-N= 8.162189787016D+02 E-N=-3.380846332357D+03  KE= 7.418533504779D+02
 1\1\GINC-NODE046\FOpt\RB3LYP\3-21G\C6H6N4O4\SUPERCOMPUTO1\06-Jul-2020\
 0\\# opt b3lyp/3-21g geom=connectivity\\Title Card Required\\0,1\O,8.0
 489093828,5.8640557263,-5.283793067\O,4.6077811801,6.6975397621,-5.150
 7887679\O,5.6772827039,4.6714740405,-5.4283543473\O,13.6873975679,8.63
 78868722,-4.948839608\N,5.6534591088,5.9443778813,-5.2580307599\N,11.4
 377377058,7.0717639622,-5.1438316567\N,12.6982173881,6.5421595712,-5.2
 226695686\N,14.9985797687,6.7547292621,-5.2090807121\C,9.0953605957,6.
 7826464216,-5.1676421512\C,8.5880600197,8.0543531277,-4.9944653549\C,6
 .8865716296,6.6125110387,-5.1764702777\C,7.1707395937,7.9406759632,-5.
 0007020098\C,10.4295669068,6.2644820729,-5.2453472991\C,13.8026875011,
 7.4273618629,-5.1114406935\H,9.1796421023,8.9449362274,-4.8791771672\H
 ,6.4377443525,8.7183232413,-4.8921491815\H,10.5088848421,5.1852977538,
 -5.3901547404\H,12.823203885,5.5361817367,-5.3581206907\H,15.843412674
 4,7.3064844055,-5.1405959534\H,15.082761091,5.7557590705,-5.3433459932
 \\Version=ES64L-G09RevD.01\State=1-A\HF=-747.8064655\RMSD=7.219e-09\RM
 SF=1.835e-05\Dipole=2.7964988,-0.7660192,-0.1203568\Quadrupole=3.14520
 55,-2.4445947,-0.7006107,-20.3163872,-2.7428334,-0.1033701\PG=C01 [X(C
 6H6N4O4)]\\@


 CONFIDENCE: THAT QUIET ASSURED FEELING YOU HAVE
 JUST BEFORE YOU FALL FLAT ON YOUR FACE.
 Job cpu time:       0 days  0 hours 38 minutes 47.6 seconds.
 File lengths (MBytes):  RWF=     14 Int=      0 D2E=      0 Chk=      3 Scr=      1
 Normal termination of Gaussian 09 at Mon Jul  6 10:47:24 2020.
