 Entering Gaussian System, Link 0=g09
 Input=lomefloxacina.gjf
 Output=lomefloxacina.log
 Initial command:
 /usr/local/cluster_programs/g09/l1.exe "/tmp/scratch/64651.prometeo/Gau-18097.inp" -scrdir="/tmp/scratch/64651.prometeo/"
 Entering Link 1 = /usr/local/cluster_programs/g09/l1.exe PID=     18098.
  
 Copyright (c) 1988,1990,1992,1993,1995,1998,2003,2009,2013,
            Gaussian, Inc.  All Rights Reserved.
  
 This is part of the Gaussian(R) 09 program.  It is based on
 the Gaussian(R) 03 system (copyright 2003, Gaussian, Inc.),
 the Gaussian(R) 98 system (copyright 1998, Gaussian, Inc.),
 the Gaussian(R) 94 system (copyright 1995, Gaussian, Inc.),
 the Gaussian 92(TM) system (copyright 1992, Gaussian, Inc.),
 the Gaussian 90(TM) system (copyright 1990, Gaussian, Inc.),
 the Gaussian 88(TM) system (copyright 1988, Gaussian, Inc.),
 the Gaussian 86(TM) system (copyright 1986, Carnegie Mellon
 University), and the Gaussian 82(TM) system (copyright 1983,
 Carnegie Mellon University). Gaussian is a federally registered
 trademark of Gaussian, Inc.
  
 This software contains proprietary and confidential information,
 including trade secrets, belonging to Gaussian, Inc.
  
 This software is provided under written license and may be
 used, copied, transmitted, or stored only in accord with that
 written license.
  
 The following legend is applicable only to US Government
 contracts under FAR:
  
                    RESTRICTED RIGHTS LEGEND
  
 Use, reproduction and disclosure by the US Government is
 subject to restrictions as set forth in subparagraphs (a)
 and (c) of the Commercial Computer Software - Restricted
 Rights clause in FAR 52.227-19.
  
 Gaussian, Inc.
 340 Quinnipiac St., Bldg. 40, Wallingford CT 06492
  
  
 ---------------------------------------------------------------
 Warning -- This program may not be used in any manner that
 competes with the business of Gaussian, Inc. or will provide
 assistance to any competitor of Gaussian, Inc.  The licensee
 of this program is prohibited from giving any competitor of
 Gaussian, Inc. access to this program.  By using this program,
 the user acknowledges that Gaussian, Inc. is engaged in the
 business of creating and licensing software in the field of
 computational chemistry and represents and warrants to the
 licensee that it is not a competitor of Gaussian, Inc. and that
 it will not use this program in any manner prohibited above.
 ---------------------------------------------------------------
  

 Cite this work as:
 Gaussian 09, Revision D.01,
 M. J. Frisch, G. W. Trucks, H. B. Schlegel, G. E. Scuseria, 
 M. A. Robb, J. R. Cheeseman, G. Scalmani, V. Barone, B. Mennucci, 
 G. A. Petersson, H. Nakatsuji, M. Caricato, X. Li, H. P. Hratchian, 
 A. F. Izmaylov, J. Bloino, G. Zheng, J. L. Sonnenberg, M. Hada, 
 M. Ehara, K. Toyota, R. Fukuda, J. Hasegawa, M. Ishida, T. Nakajima, 
 Y. Honda, O. Kitao, H. Nakai, T. Vreven, J. A. Montgomery, Jr., 
 J. E. Peralta, F. Ogliaro, M. Bearpark, J. J. Heyd, E. Brothers, 
 K. N. Kudin, V. N. Staroverov, T. Keith, R. Kobayashi, J. Normand, 
 K. Raghavachari, A. Rendell, J. C. Burant, S. S. Iyengar, J. Tomasi, 
 M. Cossi, N. Rega, J. M. Millam, M. Klene, J. E. Knox, J. B. Cross, 
 V. Bakken, C. Adamo, J. Jaramillo, R. Gomperts, R. E. Stratmann, 
 O. Yazyev, A. J. Austin, R. Cammi, C. Pomelli, J. W. Ochterski, 
 R. L. Martin, K. Morokuma, V. G. Zakrzewski, G. A. Voth, 
 P. Salvador, J. J. Dannenberg, S. Dapprich, A. D. Daniels, 
 O. Farkas, J. B. Foresman, J. V. Ortiz, J. Cioslowski, 
 and D. J. Fox, Gaussian, Inc., Wallingford CT, 2013.
 
 ******************************************
 Gaussian 09:  ES64L-G09RevD.01 24-Apr-2013
                18-Aug-2020 
 ******************************************
 %nprocshared=20
 Will use up to   20 processors via shared memory.
 -----------------------------------
 # opt b3lyp/3-21g geom=connectivity
 -----------------------------------
 1/14=-1,18=20,19=15,26=3,38=1,57=2/1,3;
 2/9=110,12=2,17=6,18=5,40=1/2;
 3/5=5,11=2,16=1,25=1,30=1,71=1,74=-5/1,2,3;
 4//1;
 5/5=2,38=5/2;
 6/7=2,8=2,9=2,10=2,28=1/1;
 7//1,2,3,16;
 1/14=-1,18=20,19=15,26=3/3(2);
 2/9=110/2;
 99//99;
 2/9=110/2;
 3/5=5,11=2,16=1,25=1,30=1,71=1,74=-5/1,2,3;
 4/5=5,16=3,69=1/1;
 5/5=2,38=5/2;
 7//1,2,3,16;
 1/14=-1,18=20,19=15,26=3/3(-5);
 2/9=110/2;
 6/7=2,8=2,9=2,10=2,19=2,28=1/1;
 99/9=1/99;
 -------------------
 Title Card Required
 -------------------
 Symbolic Z-matrix:
 Charge =  0 Multiplicity = 1
 F                     11.7974  -12.7377  -11.9125 
 F                     12.5237  -8.1918   -10.6183 
 O                     7.6222   -8.5214   -10.7671 
 O                     5.2569   -9.2311   -11.9239 
 O                     4.8122   -11.412   -11.4762 
 N                     13.6235  -10.8167  -11.3451 
 N                     16.4591  -11.3749  -11.3684 
 N                     8.9284   -12.2724  -11.8884 
 C                     15.8563  -10.4062  -12.2906 
 C                     14.5801  -9.7667   -11.7176 
 C                     14.1825  -11.7712  -10.3712 
 C                     15.4955  -12.3664  -10.8965 
 C                     12.2565  -10.5102  -11.2856 
 C                     16.8992  -9.3651   -12.6722 
 C                     11.2931  -11.4967  -11.5876 
 C                     9.8959   -11.2935  -11.5841 
 C                     11.7114  -9.2355   -10.985 
 C                     9.4393   -9.9891   -11.2697 
 C                     10.3632  -8.9836   -10.9915 
 C                     9.2195   -13.708   -12.0853 
 C                     8.0022   -9.63     -11.188 
 C                     7.6075   -11.9329  -11.8735 
 C                     7.103    -10.6896  -11.598 
 C                     9.4293   -14.4523  -10.7743 
 C                     5.6397   -10.5137  -11.6481 
 H                     15.5529  -10.9648  -13.1957 
 H                     14.8414  -9.1293   -10.8515 
 H                     14.1137  -9.1304   -12.4822 
 H                     13.448   -12.5596  -10.1744 
 H                     14.3697  -11.245   -9.4133 
 H                     15.9718  -12.9853  -10.1217 
 H                     15.2664  -13.0273  -11.7466 
 H                     16.9165  -10.8857  -10.5854 
 H                     17.8156  -9.8486   -13.0348 
 H                     16.5121  -8.7006   -13.4562 
 H                     17.169   -8.7416   -11.806 
 H                     9.9655   -8.0059   -10.7247 
 H                     8.3396   -14.1251  -12.5934 
 H                     10.0725  -13.8118  -12.7618 
 H                     6.9184   -12.7473  -12.0957 
 H                     10.3148  -14.1117  -10.2242 
 H                     8.5417   -14.354   -10.1341 
 H                     9.564    -15.5256  -10.9748 
 H                     4.2708   -9.2465   -11.9254 
 

 GradGradGradGradGradGradGradGradGradGradGradGradGradGradGradGradGradGrad
 Berny optimization.
 Initialization pass.
                           ----------------------------
                           !    Initial Parameters    !
                           ! (Angstroms and Degrees)  !
 --------------------------                            --------------------------
 ! Name  Definition              Value          Derivative Info.                !
 --------------------------------------------------------------------------------
 ! R1    R(1,15)                 1.3784         estimate D2E/DX2                !
 ! R2    R(2,17)                 1.3724         estimate D2E/DX2                !
 ! R3    R(3,21)                 1.2452         estimate D2E/DX2                !
 ! R4    R(4,25)                 1.3666         estimate D2E/DX2                !
 ! R5    R(4,44)                 0.9862         estimate D2E/DX2                !
 ! R6    R(5,25)                 1.2334         estimate D2E/DX2                !
 ! R7    R(6,10)                 1.4684         estimate D2E/DX2                !
 ! R8    R(6,11)                 1.4738         estimate D2E/DX2                !
 ! R9    R(6,13)                 1.4022         estimate D2E/DX2                !
 ! R10   R(7,9)                  1.467          estimate D2E/DX2                !
 ! R11   R(7,12)                 1.4609         estimate D2E/DX2                !
 ! R12   R(7,33)                 1.0303         estimate D2E/DX2                !
 ! R13   R(8,16)                 1.4096         estimate D2E/DX2                !
 ! R14   R(8,20)                 1.478          estimate D2E/DX2                !
 ! R15   R(8,22)                 1.3639         estimate D2E/DX2                !
 ! R16   R(9,10)                 1.5382         estimate D2E/DX2                !
 ! R17   R(9,14)                 1.5222         estimate D2E/DX2                !
 ! R18   R(9,26)                 1.106          estimate D2E/DX2                !
 ! R19   R(10,27)                1.1067         estimate D2E/DX2                !
 ! R20   R(10,28)                1.0986         estimate D2E/DX2                !
 ! R21   R(11,12)                1.5343         estimate D2E/DX2                !
 ! R22   R(11,29)                1.0954         estimate D2E/DX2                !
 ! R23   R(11,30)                1.1088         estimate D2E/DX2                !
 ! R24   R(12,31)                1.1001         estimate D2E/DX2                !
 ! R25   R(12,32)                1.1009         estimate D2E/DX2                !
 ! R26   R(13,15)                1.4116         estimate D2E/DX2                !
 ! R27   R(13,17)                1.4186         estimate D2E/DX2                !
 ! R28   R(14,34)                1.0977         estimate D2E/DX2                !
 ! R29   R(14,35)                1.0982         estimate D2E/DX2                !
 ! R30   R(14,36)                1.1008         estimate D2E/DX2                !
 ! R31   R(15,16)                1.4119         estimate D2E/DX2                !
 ! R32   R(16,18)                1.4173         estimate D2E/DX2                !
 ! R33   R(17,19)                1.3715         estimate D2E/DX2                !
 ! R34   R(18,19)                1.3936         estimate D2E/DX2                !
 ! R35   R(18,21)                1.4835         estimate D2E/DX2                !
 ! R36   R(19,37)                1.0887         estimate D2E/DX2                !
 ! R37   R(20,24)                1.5221         estimate D2E/DX2                !
 ! R38   R(20,38)                1.0983         estimate D2E/DX2                !
 ! R39   R(20,39)                1.0936         estimate D2E/DX2                !
 ! R40   R(21,23)                1.4489         estimate D2E/DX2                !
 ! R41   R(22,23)                1.3698         estimate D2E/DX2                !
 ! R42   R(22,40)                1.0897         estimate D2E/DX2                !
 ! R43   R(23,25)                1.4747         estimate D2E/DX2                !
 ! R44   R(24,41)                1.0967         estimate D2E/DX2                !
 ! R45   R(24,42)                1.0988         estimate D2E/DX2                !
 ! R46   R(24,43)                1.1001         estimate D2E/DX2                !
 ! A1    A(25,4,44)            105.4099         estimate D2E/DX2                !
 ! A2    A(10,6,11)            112.5593         estimate D2E/DX2                !
 ! A3    A(10,6,13)            119.3109         estimate D2E/DX2                !
 ! A4    A(11,6,13)            118.9012         estimate D2E/DX2                !
 ! A5    A(9,7,12)             112.3443         estimate D2E/DX2                !
 ! A6    A(9,7,33)             110.2798         estimate D2E/DX2                !
 ! A7    A(12,7,33)            111.689          estimate D2E/DX2                !
 ! A8    A(16,8,20)            124.6192         estimate D2E/DX2                !
 ! A9    A(16,8,22)            119.3083         estimate D2E/DX2                !
 ! A10   A(20,8,22)            115.7203         estimate D2E/DX2                !
 ! A11   A(7,9,10)             112.4123         estimate D2E/DX2                !
 ! A12   A(7,9,14)             109.1282         estimate D2E/DX2                !
 ! A13   A(7,9,26)             107.0761         estimate D2E/DX2                !
 ! A14   A(10,9,14)            112.1771         estimate D2E/DX2                !
 ! A15   A(10,9,26)            106.692          estimate D2E/DX2                !
 ! A16   A(14,9,26)            109.1605         estimate D2E/DX2                !
 ! A17   A(6,10,9)             109.737          estimate D2E/DX2                !
 ! A18   A(6,10,27)            111.5386         estimate D2E/DX2                !
 ! A19   A(6,10,28)            108.3077         estimate D2E/DX2                !
 ! A20   A(9,10,27)            109.5788         estimate D2E/DX2                !
 ! A21   A(9,10,28)            109.497          estimate D2E/DX2                !
 ! A22   A(27,10,28)           108.139          estimate D2E/DX2                !
 ! A23   A(6,11,12)            110.4617         estimate D2E/DX2                !
 ! A24   A(6,11,29)            109.302          estimate D2E/DX2                !
 ! A25   A(6,11,30)            109.1206         estimate D2E/DX2                !
 ! A26   A(12,11,29)           110.8627         estimate D2E/DX2                !
 ! A27   A(12,11,30)           109.5956         estimate D2E/DX2                !
 ! A28   A(29,11,30)           107.4315         estimate D2E/DX2                !
 ! A29   A(7,12,11)            114.3149         estimate D2E/DX2                !
 ! A30   A(7,12,31)            108.8894         estimate D2E/DX2                !
 ! A31   A(7,12,32)            107.1736         estimate D2E/DX2                !
 ! A32   A(11,12,31)           110.3417         estimate D2E/DX2                !
 ! A33   A(11,12,32)           108.6127         estimate D2E/DX2                !
 ! A34   A(31,12,32)           107.2307         estimate D2E/DX2                !
 ! A35   A(6,13,15)            120.2337         estimate D2E/DX2                !
 ! A36   A(6,13,17)            125.4519         estimate D2E/DX2                !
 ! A37   A(15,13,17)           114.2718         estimate D2E/DX2                !
 ! A38   A(9,14,34)            110.7019         estimate D2E/DX2                !
 ! A39   A(9,14,35)            110.5671         estimate D2E/DX2                !
 ! A40   A(9,14,36)            110.9793         estimate D2E/DX2                !
 ! A41   A(34,14,35)           108.9626         estimate D2E/DX2                !
 ! A42   A(34,14,36)           107.7446         estimate D2E/DX2                !
 ! A43   A(35,14,36)           107.7828         estimate D2E/DX2                !
 ! A44   A(1,15,13)            115.4635         estimate D2E/DX2                !
 ! A45   A(1,15,16)            119.4859         estimate D2E/DX2                !
 ! A46   A(13,15,16)           125.0496         estimate D2E/DX2                !
 ! A47   A(8,16,15)            125.3625         estimate D2E/DX2                !
 ! A48   A(8,16,18)            117.7687         estimate D2E/DX2                !
 ! A49   A(15,16,18)           116.8596         estimate D2E/DX2                !
 ! A50   A(2,17,13)            120.8324         estimate D2E/DX2                !
 ! A51   A(2,17,19)            116.3201         estimate D2E/DX2                !
 ! A52   A(13,17,19)           122.8027         estimate D2E/DX2                !
 ! A53   A(16,18,19)           119.6531         estimate D2E/DX2                !
 ! A54   A(16,18,21)           123.1657         estimate D2E/DX2                !
 ! A55   A(19,18,21)           117.1666         estimate D2E/DX2                !
 ! A56   A(17,19,18)           121.3403         estimate D2E/DX2                !
 ! A57   A(17,19,37)           121.5243         estimate D2E/DX2                !
 ! A58   A(18,19,37)           117.0463         estimate D2E/DX2                !
 ! A59   A(8,20,24)            112.7915         estimate D2E/DX2                !
 ! A60   A(8,20,38)            105.8253         estimate D2E/DX2                !
 ! A61   A(8,20,39)            109.1607         estimate D2E/DX2                !
 ! A62   A(24,20,38)           108.8551         estimate D2E/DX2                !
 ! A63   A(24,20,39)           112.264          estimate D2E/DX2                !
 ! A64   A(38,20,39)           107.6164         estimate D2E/DX2                !
 ! A65   A(3,21,18)            121.9874         estimate D2E/DX2                !
 ! A66   A(3,21,23)            123.8711         estimate D2E/DX2                !
 ! A67   A(18,21,23)           114.115          estimate D2E/DX2                !
 ! A68   A(8,22,23)            125.7913         estimate D2E/DX2                !
 ! A69   A(8,22,40)            115.0981         estimate D2E/DX2                !
 ! A70   A(23,22,40)           119.1082         estimate D2E/DX2                !
 ! A71   A(21,23,22)           119.4803         estimate D2E/DX2                !
 ! A72   A(21,23,25)           122.5603         estimate D2E/DX2                !
 ! A73   A(22,23,25)           117.8337         estimate D2E/DX2                !
 ! A74   A(20,24,41)           113.0456         estimate D2E/DX2                !
 ! A75   A(20,24,42)           110.2885         estimate D2E/DX2                !
 ! A76   A(20,24,43)           109.6925         estimate D2E/DX2                !
 ! A77   A(41,24,42)           109.4024         estimate D2E/DX2                !
 ! A78   A(41,24,43)           107.1904         estimate D2E/DX2                !
 ! A79   A(42,24,43)           106.9998         estimate D2E/DX2                !
 ! A80   A(4,25,5)             121.5833         estimate D2E/DX2                !
 ! A81   A(4,25,23)            113.3749         estimate D2E/DX2                !
 ! A82   A(5,25,23)            125.0385         estimate D2E/DX2                !
 ! D1    D(44,4,25,5)            0.8502         estimate D2E/DX2                !
 ! D2    D(44,4,25,23)        -179.7755         estimate D2E/DX2                !
 ! D3    D(11,6,10,9)           57.4756         estimate D2E/DX2                !
 ! D4    D(11,6,10,27)         -64.1491         estimate D2E/DX2                !
 ! D5    D(11,6,10,28)         176.961          estimate D2E/DX2                !
 ! D6    D(13,6,10,9)         -156.0733         estimate D2E/DX2                !
 ! D7    D(13,6,10,27)          82.302          estimate D2E/DX2                !
 ! D8    D(13,6,10,28)         -36.5879         estimate D2E/DX2                !
 ! D9    D(10,6,11,12)         -54.6129         estimate D2E/DX2                !
 ! D10   D(10,6,11,29)        -176.8504         estimate D2E/DX2                !
 ! D11   D(10,6,11,30)          65.9326         estimate D2E/DX2                !
 ! D12   D(13,6,11,12)         158.7852         estimate D2E/DX2                !
 ! D13   D(13,6,11,29)          36.5476         estimate D2E/DX2                !
 ! D14   D(13,6,11,30)         -80.6694         estimate D2E/DX2                !
 ! D15   D(10,6,13,15)         148.6752         estimate D2E/DX2                !
 ! D16   D(10,6,13,17)         -28.8099         estimate D2E/DX2                !
 ! D17   D(11,6,13,15)         -66.9843         estimate D2E/DX2                !
 ! D18   D(11,6,13,17)         115.5307         estimate D2E/DX2                !
 ! D19   D(12,7,9,10)           51.6643         estimate D2E/DX2                !
 ! D20   D(12,7,9,14)          176.779          estimate D2E/DX2                !
 ! D21   D(12,7,9,26)          -65.1894         estimate D2E/DX2                !
 ! D22   D(33,7,9,10)          -73.6356         estimate D2E/DX2                !
 ! D23   D(33,7,9,14)           51.4791         estimate D2E/DX2                !
 ! D24   D(33,7,9,26)          169.5107         estimate D2E/DX2                !
 ! D25   D(9,7,12,11)          -49.3486         estimate D2E/DX2                !
 ! D26   D(9,7,12,31)         -173.2503         estimate D2E/DX2                !
 ! D27   D(9,7,12,32)           71.0637         estimate D2E/DX2                !
 ! D28   D(33,7,12,11)          75.1769         estimate D2E/DX2                !
 ! D29   D(33,7,12,31)         -48.7248         estimate D2E/DX2                !
 ! D30   D(33,7,12,32)        -164.4108         estimate D2E/DX2                !
 ! D31   D(20,8,16,15)           8.4539         estimate D2E/DX2                !
 ! D32   D(20,8,16,18)        -172.6867         estimate D2E/DX2                !
 ! D33   D(22,8,16,15)        -178.6631         estimate D2E/DX2                !
 ! D34   D(22,8,16,18)           0.1963         estimate D2E/DX2                !
 ! D35   D(16,8,20,24)          77.7456         estimate D2E/DX2                !
 ! D36   D(16,8,20,38)        -163.3429         estimate D2E/DX2                !
 ! D37   D(16,8,20,39)         -47.78           estimate D2E/DX2                !
 ! D38   D(22,8,20,24)         -95.367          estimate D2E/DX2                !
 ! D39   D(22,8,20,38)          23.5445         estimate D2E/DX2                !
 ! D40   D(22,8,20,39)         139.1074         estimate D2E/DX2                !
 ! D41   D(16,8,22,23)           0.8055         estimate D2E/DX2                !
 ! D42   D(16,8,22,40)        -178.6169         estimate D2E/DX2                !
 ! D43   D(20,8,22,23)         174.3072         estimate D2E/DX2                !
 ! D44   D(20,8,22,40)          -5.1152         estimate D2E/DX2                !
 ! D45   D(7,9,10,6)           -55.5135         estimate D2E/DX2                !
 ! D46   D(7,9,10,27)           67.2781         estimate D2E/DX2                !
 ! D47   D(7,9,10,28)         -174.2678         estimate D2E/DX2                !
 ! D48   D(14,9,10,6)         -178.9414         estimate D2E/DX2                !
 ! D49   D(14,9,10,27)         -56.1498         estimate D2E/DX2                !
 ! D50   D(14,9,10,28)          62.3042         estimate D2E/DX2                !
 ! D51   D(26,9,10,6)           61.5693         estimate D2E/DX2                !
 ! D52   D(26,9,10,27)        -175.6391         estimate D2E/DX2                !
 ! D53   D(26,9,10,28)         -57.185          estimate D2E/DX2                !
 ! D54   D(7,9,14,34)           52.1696         estimate D2E/DX2                !
 ! D55   D(7,9,14,35)          173.022          estimate D2E/DX2                !
 ! D56   D(7,9,14,36)          -67.4244         estimate D2E/DX2                !
 ! D57   D(10,9,14,34)         177.4211         estimate D2E/DX2                !
 ! D58   D(10,9,14,35)         -61.7265         estimate D2E/DX2                !
 ! D59   D(10,9,14,36)          57.8271         estimate D2E/DX2                !
 ! D60   D(26,9,14,34)         -64.5446         estimate D2E/DX2                !
 ! D61   D(26,9,14,35)          56.3078         estimate D2E/DX2                !
 ! D62   D(26,9,14,36)         175.8614         estimate D2E/DX2                !
 ! D63   D(6,11,12,7)           50.1788         estimate D2E/DX2                !
 ! D64   D(6,11,12,31)         173.2989         estimate D2E/DX2                !
 ! D65   D(6,11,12,32)         -69.429          estimate D2E/DX2                !
 ! D66   D(29,11,12,7)         171.4953         estimate D2E/DX2                !
 ! D67   D(29,11,12,31)        -65.3847         estimate D2E/DX2                !
 ! D68   D(29,11,12,32)         51.8875         estimate D2E/DX2                !
 ! D69   D(30,11,12,7)         -70.0822         estimate D2E/DX2                !
 ! D70   D(30,11,12,31)         53.0378         estimate D2E/DX2                !
 ! D71   D(30,11,12,32)        170.31           estimate D2E/DX2                !
 ! D72   D(6,13,15,1)            0.8698         estimate D2E/DX2                !
 ! D73   D(6,13,15,16)        -178.769          estimate D2E/DX2                !
 ! D74   D(17,13,15,1)         178.6226         estimate D2E/DX2                !
 ! D75   D(17,13,15,16)         -1.0162         estimate D2E/DX2                !
 ! D76   D(6,13,17,2)           -5.0912         estimate D2E/DX2                !
 ! D77   D(6,13,17,19)         177.4343         estimate D2E/DX2                !
 ! D78   D(15,13,17,2)         177.2923         estimate D2E/DX2                !
 ! D79   D(15,13,17,19)         -0.1822         estimate D2E/DX2                !
 ! D80   D(1,15,16,8)            0.1726         estimate D2E/DX2                !
 ! D81   D(1,15,16,18)        -178.6961         estimate D2E/DX2                !
 ! D82   D(13,15,16,8)         179.7979         estimate D2E/DX2                !
 ! D83   D(13,15,16,18)          0.9292         estimate D2E/DX2                !
 ! D84   D(8,16,18,19)        -178.5947         estimate D2E/DX2                !
 ! D85   D(8,16,18,21)           2.8364         estimate D2E/DX2                !
 ! D86   D(15,16,18,19)          0.3627         estimate D2E/DX2                !
 ! D87   D(15,16,18,21)       -178.2062         estimate D2E/DX2                !
 ! D88   D(2,17,19,18)        -176.1448         estimate D2E/DX2                !
 ! D89   D(2,17,19,37)           0.3203         estimate D2E/DX2                !
 ! D90   D(13,17,19,18)          1.4358         estimate D2E/DX2                !
 ! D91   D(13,17,19,37)        177.9009         estimate D2E/DX2                !
 ! D92   D(16,18,19,17)         -1.509          estimate D2E/DX2                !
 ! D93   D(16,18,19,37)       -178.126          estimate D2E/DX2                !
 ! D94   D(21,18,19,17)        177.1445         estimate D2E/DX2                !
 ! D95   D(21,18,19,37)          0.5275         estimate D2E/DX2                !
 ! D96   D(16,18,21,3)         171.871          estimate D2E/DX2                !
 ! D97   D(16,18,21,23)         -6.3246         estimate D2E/DX2                !
 ! D98   D(19,18,21,3)          -6.7311         estimate D2E/DX2                !
 ! D99   D(19,18,21,23)        175.0733         estimate D2E/DX2                !
 ! D100  D(8,20,24,41)         -64.8078         estimate D2E/DX2                !
 ! D101  D(8,20,24,42)          58.023          estimate D2E/DX2                !
 ! D102  D(8,20,24,43)         175.6286         estimate D2E/DX2                !
 ! D103  D(38,20,24,41)        178.0585         estimate D2E/DX2                !
 ! D104  D(38,20,24,42)        -59.1107         estimate D2E/DX2                !
 ! D105  D(38,20,24,43)         58.4948         estimate D2E/DX2                !
 ! D106  D(39,20,24,41)         59.0214         estimate D2E/DX2                !
 ! D107  D(39,20,24,42)       -178.1477         estimate D2E/DX2                !
 ! D108  D(39,20,24,43)        -60.5422         estimate D2E/DX2                !
 ! D109  D(3,21,23,22)        -171.1637         estimate D2E/DX2                !
 ! D110  D(3,21,23,25)           4.6702         estimate D2E/DX2                !
 ! D111  D(18,21,23,22)          6.993          estimate D2E/DX2                !
 ! D112  D(18,21,23,25)       -177.1731         estimate D2E/DX2                !
 ! D113  D(8,22,23,21)          -4.7424         estimate D2E/DX2                !
 ! D114  D(8,22,23,25)         179.2279         estimate D2E/DX2                !
 ! D115  D(40,22,23,21)        174.6589         estimate D2E/DX2                !
 ! D116  D(40,22,23,25)         -1.3708         estimate D2E/DX2                !
 ! D117  D(21,23,25,4)          30.1604         estimate D2E/DX2                !
 ! D118  D(21,23,25,5)        -150.4906         estimate D2E/DX2                !
 ! D119  D(22,23,25,4)        -153.9407         estimate D2E/DX2                !
 ! D120  D(22,23,25,5)          25.4083         estimate D2E/DX2                !
 --------------------------------------------------------------------------------
 Trust Radius=3.00D-01 FncErr=1.00D-07 GrdErr=1.00D-06
 Number of steps in this run=    258 maximum allowed number of steps=    264.
 GradGradGradGradGradGradGradGradGradGradGradGradGradGradGradGradGradGrad

                          Input orientation:                          
 ---------------------------------------------------------------------
 Center     Atomic      Atomic             Coordinates (Angstroms)
 Number     Number       Type             X           Y           Z
 ---------------------------------------------------------------------
      1          9           0       11.797400  -12.737700  -11.912500
      2          9           0       12.523700   -8.191800  -10.618300
      3          8           0        7.622200   -8.521400  -10.767100
      4          8           0        5.256900   -9.231100  -11.923900
      5          8           0        4.812200  -11.412000  -11.476200
      6          7           0       13.623500  -10.816700  -11.345100
      7          7           0       16.459100  -11.374900  -11.368400
      8          7           0        8.928400  -12.272400  -11.888400
      9          6           0       15.856300  -10.406200  -12.290600
     10          6           0       14.580100   -9.766700  -11.717600
     11          6           0       14.182500  -11.771200  -10.371200
     12          6           0       15.495500  -12.366400  -10.896500
     13          6           0       12.256500  -10.510200  -11.285600
     14          6           0       16.899200   -9.365100  -12.672200
     15          6           0       11.293100  -11.496700  -11.587600
     16          6           0        9.895900  -11.293500  -11.584100
     17          6           0       11.711400   -9.235500  -10.985000
     18          6           0        9.439300   -9.989100  -11.269700
     19          6           0       10.363200   -8.983600  -10.991500
     20          6           0        9.219500  -13.708000  -12.085300
     21          6           0        8.002200   -9.630000  -11.188000
     22          6           0        7.607500  -11.932900  -11.873500
     23          6           0        7.103000  -10.689600  -11.598000
     24          6           0        9.429300  -14.452300  -10.774300
     25          6           0        5.639700  -10.513700  -11.648100
     26          1           0       15.552900  -10.964800  -13.195700
     27          1           0       14.841400   -9.129300  -10.851500
     28          1           0       14.113700   -9.130400  -12.482200
     29          1           0       13.448000  -12.559600  -10.174400
     30          1           0       14.369700  -11.245000   -9.413300
     31          1           0       15.971800  -12.985300  -10.121700
     32          1           0       15.266400  -13.027300  -11.746600
     33          1           0       16.916500  -10.885700  -10.585400
     34          1           0       17.815600   -9.848600  -13.034800
     35          1           0       16.512100   -8.700600  -13.456200
     36          1           0       17.169000   -8.741600  -11.806000
     37          1           0        9.965500   -8.005900  -10.724700
     38          1           0        8.339600  -14.125100  -12.593400
     39          1           0       10.072500  -13.811800  -12.761800
     40          1           0        6.918400  -12.747300  -12.095700
     41          1           0       10.314800  -14.111700  -10.224200
     42          1           0        8.541700  -14.354000  -10.134100
     43          1           0        9.564000  -15.525600  -10.974800
     44          1           0        4.270800   -9.246500  -11.925400
 ---------------------------------------------------------------------
                    Distance matrix (angstroms):
                    1          2          3          4          5
     1  F    0.000000
     2  F    4.782015   0.000000
     3  O    6.043296   4.914822   0.000000
     4  O    7.421221   7.455945   2.726995   0.000000
     5  O    7.123262   8.400769   4.093225   2.270356   0.000000
     6  N    2.710503   2.937328   6.451208   8.535170   8.832360
     7  N    4.887199   5.116849   9.305634  11.419008  11.647458
     8  N    2.906587   5.584857   4.127163   4.767670   4.225316
     9  C    4.696118   4.336632   8.583352  10.670642  11.119668
    10  C    4.075322   2.813814   7.132082   9.340850   9.908439
    11  C    2.999738   3.952819   7.331812   9.409002   9.442064
    12  C    3.853059   5.131888   8.762969  10.757071  10.741500
    13  C    2.359138   2.427275   5.069606   7.144083   7.501145
    14  C    6.162787   4.973946   9.508100  11.667093  12.317296
    15  C    1.378390   3.657360   4.795950   6.456141   6.482411
    16  C    2.410241   4.178354   3.677192   5.088151   5.086226
    17  C    3.623956   1.372447   4.156799   6.522432   7.251027
    18  C    3.678129   3.628792   2.389268   4.300583   4.845342
    19  C    4.122916   2.331091   2.788739   5.196626   6.078294
    20  C    2.759875   6.595323   5.584786   5.980876   5.006687
    21  C    4.958452   4.778801   1.245211   2.870077   3.665335
    22  C    4.266672   6.303997   3.586456   3.581562   2.871043
    23  C    5.131376   6.048372   2.379297   2.375188   2.405091
    24  C    3.137395   6.985235   6.200100   6.781698   5.572585
    25  C    6.552355   7.337654   2.945459   1.366625   1.233389
    26  H    4.346672   4.848564   8.646635  10.518118  10.886657
    27  H    4.838616   2.510980   7.245241   9.644846  10.304651
    28  H    4.324629   2.623584   6.741811   8.874950   9.629934
    29  H    2.403579   4.486541   7.113248   9.012979   8.808445
    30  H    3.884698   3.765869   7.401319   9.664473   9.779021
    31  H    4.549053   5.925677   9.489930  11.495696  11.351062
    32  H    3.485018   5.672524   8.927281  10.706664  10.581711
    33  H    5.603239   5.153142   9.592025  11.852238  12.148440
    34  H    6.769430   6.048856  10.526601  12.622850  13.189460
    35  H    6.396060   4.921371   9.289440  11.371407  12.172089
    36  H    6.695838   4.826150   9.605685  11.922736  12.646356
    37  H    5.211205   2.567152   2.399707   5.010999   6.222762
    38  H    3.787464   7.524079   5.937296   5.822586   4.588202
    39  H    2.202335   6.495181   6.162072   6.698872   5.923054
    40  H    4.882448   7.372563   4.485392   3.892783   2.569608
    41  H    2.633692   6.330859   6.228667   7.231292   6.255757
    42  H    4.046568   7.352787   5.938467   6.343296   4.936169
    43  H    3.693202   7.916536   7.271351   7.685872   6.304975
    44  H    8.296888   8.422070   3.619297   0.986221   2.276902
                    6          7          8          9         10
     6  N    0.000000
     7  N    2.890114   0.000000
     8  N    4.945523   7.601799   0.000000
     9  C    2.459243   1.467038   7.186116   0.000000
    10  C    1.468448   2.497777   6.184611   1.538173   0.000000
    11  C    1.473782   2.516817   5.491690   2.889451   2.447223
    12  C    2.471274   1.460920   6.642251   2.432298   2.875866
    13  C    1.402202   4.291434   3.813786   3.738904   2.477606
    14  C    3.820805   2.435750   8.520586   1.522218   2.539836
    15  C    2.439666   5.172083   2.506790   4.744069   3.716742
    16  C    3.765563   6.567248   1.409574   6.067356   4.928557
    17  C    2.507188   5.221559   4.217106   4.500592   3.008042
    18  C    4.265927   7.155961   2.420179   6.511075   5.165065
    19  C    3.756973   6.558991   3.698552   5.821134   4.350024
    20  C    5.320031   7.639968   1.477991   7.415601   6.663714
    21  C    5.747343   8.636919   2.886292   7.969009   6.600601
    22  C    6.141446   8.883542   1.363913   8.399255   7.303005
    23  C    6.526640   9.383974   2.433449   8.785230   7.534791
    24  C    5.579849   7.696846   2.498816   7.744444   7.026763
    25  C    7.995291  10.857224   3.737154  10.237347   8.971822
    26  H    2.677543   2.080482   6.877707   1.106025   2.136952
    27  H    2.138747   2.815468   6.776268   2.175202   1.106655
    28  H    2.092104   3.432089   6.091970   2.168186   1.098645
    29  H    2.106903   3.449039   4.842217   3.862039   3.385765
    30  H    2.114736   2.864417   6.065428   3.345507   2.745804
    31  H    3.422579   2.094066   7.296502   3.371828   3.852676
    32  H    2.783357   2.072678   6.384374   2.741183   3.332171
    33  H    3.380200   1.030350   8.211607   2.064377   2.827155
    34  H    4.622338   2.635635   9.282853   2.168780   3.494307
    35  H    4.156757   3.393169   8.528086   2.167434   2.809257
    36  H    4.133889   2.762195   8.965535   2.174606   2.785866
    37  H    4.654724   7.343797   4.542334   6.550955   5.037936
    38  H    6.357937   8.659706   2.067899   8.391822   7.662018
    39  H    4.856672   6.976296   2.107497   6.728483   6.145864
    40  H    7.017762   9.666302   2.075718   9.241471   8.229738
    41  H    4.802180   6.822880   2.841600   6.979181   6.269135
    42  H    6.309018   8.548904   2.749575   8.587141   7.746810
    43  H    6.228194   8.057645   3.438308   8.217824   7.673196
    44  H    9.501330  12.385273   5.554339  11.649124  10.324508
                   11         12         13         14         15
    11  C    0.000000
    12  C    1.534331   0.000000
    13  C    2.477039   3.753398   0.000000
    14  C    4.297020   3.759160   4.978813   0.000000
    15  C    3.147000   4.346742   1.411569   6.094951   0.000000
    16  C    4.480431   5.742772   2.505014   7.344991   1.411903
    17  C    3.593447   4.912207   1.418575   5.456804   2.377210
    18  C    5.145982   6.516778   2.865033   7.616199   2.410496
    19  C    4.768914   6.147590   2.449814   6.759408   2.745127
    20  C    5.596490   6.526968   4.482055   8.842116   3.072030
    21  C    6.591510   7.982631   4.345497   9.023837   3.804507
    22  C    6.746383   7.960088   4.897234   9.673014   3.722319
    23  C    7.265963   8.587073   5.166076   9.943528   4.267137
    24  C    5.472083   6.415972   4.877975   9.234773   3.587587
    25  C    8.728758  10.056550   6.626723  11.364172   5.738543
    26  H    3.241308   2.693343   3.836847   2.155369   4.584190
    27  H    2.764864   3.302830   2.962606   2.757733   4.328609
    28  H    3.381550   3.859470   2.604782   2.801820   3.788861
    29  H    1.095352   2.179681   2.618106   5.324905   2.787559
    30  H    1.108829   2.173671   2.917371   4.533522   3.775765
    31  H    2.176668   1.100097   4.613484   4.524486   5.123966
    32  H    2.155076   1.100884   3.950672   4.115152   4.260884
    33  H    2.881796   2.075692   4.727249   2.582103   5.744593
    34  H    4.898017   4.036646   5.865237   1.097743   6.881397
    35  H    4.936886   4.585153   5.108453   1.098209   6.208688
    36  H    4.489578   4.094749   5.247039   1.100839   6.493418
    37  H    5.664410   7.044457   3.440176   7.329146   3.833119
    38  H    6.679708   7.561706   5.488164   9.794415   4.079618
    39  H    5.174081   5.914174   4.224877   8.147699   2.868501
    40  H    7.529530   8.668899   5.844330  10.554051   4.578227
    41  H    4.523124   5.507968   4.227005   8.478045   3.107114
    42  H    6.208518   7.272355   5.468134  10.058771   4.224574
    43  H    5.982507   6.720816   5.700911   9.728211   4.426889
    44  H   10.345600  11.695568   8.110344  12.651018   7.381748
                   16         17         18         19         20
    16  C    0.000000
    17  C    2.808972   0.000000
    18  C    1.417318   2.410686   0.000000
    19  C    2.430058   1.371546   1.393563   0.000000
    20  C    2.557055   5.236743   3.813625   4.982409   0.000000
    21  C    2.551515   3.735640   1.483538   2.455762   4.349374
    22  C    2.393608   4.990731   2.738325   4.131607   2.407153
    23  C    2.857478   4.871091   2.461052   3.729233   3.718571
    24  C    3.294163   5.698015   4.490621   5.552119   1.522077
    25  C    4.327519   6.240115   3.854264   5.008371   4.817641
    26  H    5.891260   4.757604   6.483639   5.976340   6.990715
    27  H    5.447792   3.134645   5.486058   4.482756   7.354761
    28  H    4.824461   2.832613   4.904848   4.038562   6.713058
    29  H    4.025876   3.836990   4.886392   4.792851   4.780227
    30  H    4.972888   3.684412   5.415935   4.863814   6.303215
    31  H    6.474362   5.740844   7.277958   6.944534   7.069058
    32  H    5.645772   5.253171   6.588868   6.400239   6.094511
    33  H    7.102994   5.475026   7.561791   6.835835   8.334200
    34  H    8.180093   6.468294   8.561409   7.775704   9.470452
    35  H    7.348605   5.425833   7.514354   6.630521   8.951840
    36  H    7.710993   5.541063   7.848066   6.858636   9.377510
    37  H    3.398783   2.151241   2.122968   1.088689   5.909458
    38  H    3.385072   6.153387   4.479734   5.752918   1.098345
    39  H    2.785678   5.175474   4.152149   5.150727   1.093634
    40  H    3.352727   6.044770   3.826863   5.220282   2.493615
    41  H    3.157065   5.128999   4.342281   5.185412   2.196895
    42  H    3.647330   6.080302   4.598655   5.735346   2.164234
    43  H    4.288598   6.646562   5.545750   6.590657   2.157675
    44  H    5.995702   7.499800   5.262584   6.169167   6.664847
                   21         22         23         24         25
    21  C    0.000000
    22  C    2.434963   0.000000
    23  C    1.448935   1.369750   0.000000
    24  C    5.046022   3.297662   4.499785   0.000000
    25  C    2.563986   2.436631   1.474686   5.535085   0.000000
    26  H    7.926261   8.112633   8.604022   7.451464  10.043410
    27  H    6.865755   7.825213   7.929353   7.591516   9.339294
    28  H    6.266976   7.110215   7.236216   7.292678   8.626582
    29  H    6.266313   6.114829   6.766281   4.482426   8.205306
    30  H    6.804619   7.228633   7.608305   6.045382   9.041130
    31  H    8.712609   8.610335   9.279295   6.736637  10.732707
    32  H    8.038799   7.737736   8.492822   6.086685   9.949937
    33  H    9.022453   9.455861   9.867553   8.295450  11.332870
    34  H    9.988057  10.483236  10.841193   9.830256  12.272646
    35  H    8.855897   9.604405   9.794906   9.510031  11.169854
    36  H    9.230460  10.080240  10.254868   9.673647  11.665763
    37  H    2.589767   4.722418   4.019802   6.468852   5.084710
    38  H    4.721749   2.420737   3.784529   2.145607   4.607088
    39  H    4.924474   3.224216   4.463238   2.184972   5.636267
    40  H    3.422879   1.089715   2.125067   3.310248   2.612353
    41  H    5.134459   3.846665   4.890169   1.096690   6.068744
    42  H    4.870107   3.124095   4.200082   1.098796   5.045959
    43  H    6.102686   4.188442   5.461849   1.100144   6.400985
    44  H    3.822849   4.284041   3.195479   7.418592   1.885889
                   26         27         28         29         30
    26  H    0.000000
    27  H    3.061138   0.000000
    28  H    2.438320   1.785702   0.000000
    29  H    4.012760   3.763906   4.186706   0.000000
    30  H    3.973037   2.601366   3.735668   1.776788   0.000000
    31  H    3.702347   4.084011   4.887203   2.559993   2.469251
    32  H    2.536903   4.021969   4.129849   2.448905   3.070009
    33  H    2.946070   2.731628   3.812429   3.873158   2.826501
    34  H    2.528162   3.758997   3.811199   5.882800   5.190320
    35  H    2.472757   3.124017   2.624067   5.920372   5.235350
    36  H    3.079880   2.545408   3.153295   5.575400   4.452876
    37  H    6.788223   5.005248   4.643368   5.759064   5.622145
    38  H    7.898225   8.382460   7.635419   5.864989   7.400684
    39  H    6.190998   6.951076   6.190717   4.433581   6.022196
    40  H    8.884925   8.798403   8.062487   6.808987   8.060648
    41  H    6.794887   6.760763   6.659096   3.496918   5.031674
    42  H    8.367616   8.215739   7.990416   5.224297   6.644623
    43  H    7.848581   8.293299   7.991909   4.952096   6.622429
    44  H   11.482682  10.625657   9.859320   9.912801  10.596812
                   31         32         33         34         35
    31  H    0.000000
    32  H    1.771907   0.000000
    33  H    2.348573   2.942391   0.000000
    34  H    4.660970   4.273408   2.807760   0.000000
    35  H    5.456140   4.816101   3.630385   1.787343   0.000000
    36  H    4.720079   4.689418   2.480078   1.775807   1.776614
    37  H    7.825195   7.372807   7.525228   8.387859   7.127529
    38  H    8.103019   7.064191   9.385574  10.405665   9.846795
    39  H    6.515748   5.350016   7.754941   8.702705   8.250758
    40  H    9.269162   8.359987  10.281467  11.315182  10.500753
    41  H    5.768963   5.292633   7.356629   9.073891   8.839251
    42  H    7.555123   7.041440   9.075795  10.710645  10.321073
    43  H    6.945560   6.273320   8.702848  10.225499  10.050575
    44  H   12.415529  11.628828  12.821712  13.603489  12.348716
                   36         37         38         39         40
    36  H    0.000000
    37  H    7.321262   0.000000
    38  H   10.371132   6.601530   0.000000
    39  H    8.773870   6.153836   1.769027   0.000000
    40  H   11.009285   5.800460   2.041041   3.394878   0.000000
    41  H    8.849866   6.136229   3.084591   2.566722   4.110916
    42  H   10.427108   6.532564   2.478184   3.089035   3.010725
    43  H   10.224949   7.534563   2.465851   2.527657   3.996820
    44  H   12.908631   5.950662   6.387652   7.429755   4.392538
                   41         42         43         44
    41  H    0.000000
    42  H    1.791846   0.000000
    43  H    1.768110   1.767631   0.000000
    44  H    7.943185   6.894628   8.267327   0.000000
 Stoichiometry    C17H19F2N3O3
 Framework group  C1[X(C17H19F2N3O3)]
 Deg. of freedom   126
 Full point group                 C1      NOp   1
 Largest Abelian subgroup         C1      NOp   1
 Largest concise Abelian subgroup C1      NOp   1
                         Standard orientation:                         
 ---------------------------------------------------------------------
 Center     Atomic      Atomic             Coordinates (Angstroms)
 Number     Number       Type             X           Y           Z
 ---------------------------------------------------------------------
      1          9           0        0.857943    1.901599    0.415279
      2          9           0        1.656531   -2.665025   -0.757700
      3          8           0       -3.249342   -2.413340   -0.601054
      4          8           0       -5.622755   -1.712048    0.544199
      5          8           0       -6.105307    0.448162    0.039073
      6          7           0        2.714309   -0.003365   -0.106106
      7          7           0        5.540204    0.602500   -0.107687
      8          7           0       -2.002908    1.388007    0.413656
      9          6           0        4.956489   -0.350717    0.842499
     10          6           0        3.689493   -1.026751    0.291433
     11          6           0        3.254314    0.933524   -1.107438
     12          6           0        4.558706    1.564599   -0.602979
     13          6           0        1.352471   -0.334136   -0.152580
     14          6           0        6.017838   -1.363520    1.248597
     15          6           0        0.373564    0.643989    0.125874
     16          6           0       -1.020035    0.417483    0.132683
     17          6           0        0.827936   -1.625449   -0.416640
     18          6           0       -1.455627   -0.902413   -0.144671
     19          6           0       -0.515824   -1.899542   -0.398683
     20          6           0       -1.735343    2.833083    0.570565
     21          6           0       -2.886738   -1.287530   -0.211669
     22          6           0       -3.317966    1.026233    0.412502
     23          6           0       -3.802359   -0.232337    0.172542
     24          6           0       -1.541966    3.544896   -0.760843
     25          6           0       -5.262347   -0.431204    0.232418
     26          1           0        4.646461    0.227121    1.733161
     27          1           0        3.958865   -1.682992   -0.557962
     28          1           0        3.236113   -1.649742    1.074598
     29          1           0        2.506110    1.703921   -1.323014
     30          1           0        3.447458    0.384696   -2.051359
     31          1           0        5.022246    2.170087   -1.395903
     32          1           0        4.321087    2.244431    0.229674
     33          1           0        6.003409    0.099913   -0.878704
     34          1           0        6.927076   -0.855125    1.594807
     35          1           0        5.644277   -2.012847    2.051648
     36          1           0        6.295475   -2.005729    0.398696
     37          1           0       -0.897862   -2.890628   -0.637513
     38          1           0       -2.620597    3.249089    1.070191
     39          1           0       -0.882192    2.969439    1.241069
     40          1           0       -4.019964    1.834756    0.614909
     41          1           0       -0.652521    3.204303   -1.304546
     42          1           0       -2.429697    3.414445   -1.395090
     43          1           0       -1.424691    4.625344   -0.589976
     44          1           0       -6.608966   -1.713070    0.548668
 ---------------------------------------------------------------------
 Rotational constants (GHZ):      0.4778195      0.1114391      0.0944800
 Standard basis: 3-21G (6D, 7F)
 There are   263 symmetry adapted cartesian basis functions of A   symmetry.
 There are   263 symmetry adapted basis functions of A   symmetry.
   263 basis functions,   432 primitive gaussians,   263 cartesian basis functions
    92 alpha electrons       92 beta electrons
       nuclear repulsion energy      2260.8189874589 Hartrees.
 NAtoms=   44 NActive=   44 NUniq=   44 SFac= 1.00D+00 NAtFMM=   60 NAOKFM=F Big=F
 Integral buffers will be    131072 words long.
 Raffenetti 2 integral format.
 Two-electron integral symmetry is turned on.
 One-electron integrals computed using PRISM.
 PrsmSu:  requested number of processors reduced to:   9 ShMem   1 Linda.
 NBasis=   263 RedAO= T EigKep=  1.28D-03  NBF=   263
 NBsUse=   263 1.00D-06 EigRej= -1.00D+00 NBFU=   263
 ExpMin= 1.83D-01 ExpMax= 4.14D+02 ExpMxC= 4.14D+02 IAcc=1 IRadAn=         1 AccDes= 0.00D+00
 Harris functional with IExCor=  402 and IRadAn=       1 diagonalized for initial guess.
 HarFok:  IExCor=  402 AccDes= 0.00D+00 IRadAn=         1 IDoV= 1 UseB2=F ITyADJ=14
 ICtDFT=  3500011 ScaDFX=  1.000000  1.000000  1.000000  1.000000
 FoFCou: FMM=F IPFlag=           0 FMFlag=      100000 FMFlg1=           0
         NFxFlg=           0 DoJE=T BraDBF=F KetDBF=T FulRan=T
         wScrn=  0.000000 ICntrl=     500 IOpCl=  0 I1Cent=   200000004 NGrid=           0
         NMat0=    1 NMatS0=      1 NMatT0=    0 NMatD0=    1 NMtDS0=    0 NMtDT0=    0
 Petite list used in FoFCou.
 Requested convergence on RMS density matrix=1.00D-08 within 128 cycles.
 Requested convergence on MAX density matrix=1.00D-06.
 Requested convergence on             energy=1.00D-06.
 No special actions if energy rises.
 Integral accuracy reduced to 1.0D-05 until final iterations.
 EnCoef did     1 forward-backward iterations
 Initial convergence to 1.0D-05 achieved.  Increase integral accuracy.
 SCF Done:  E(RB3LYP) =  -1242.02232860     A.U. after   18 cycles
            NFock= 18  Conv=0.46D-08     -V/T= 2.0082

 **********************************************************************

            Population analysis using the SCF density.

 **********************************************************************

 Orbital symmetries:
       Occupied  (A) (A) (A) (A) (A) (A) (A) (A) (A) (A) (A) (A)
                 (A) (A) (A) (A) (A) (A) (A) (A) (A) (A) (A) (A)
                 (A) (A) (A) (A) (A) (A) (A) (A) (A) (A) (A) (A)
                 (A) (A) (A) (A) (A) (A) (A) (A) (A) (A) (A) (A)
                 (A) (A) (A) (A) (A) (A) (A) (A) (A) (A) (A) (A)
                 (A) (A) (A) (A) (A) (A) (A) (A) (A) (A) (A) (A)
                 (A) (A) (A) (A) (A) (A) (A) (A) (A) (A) (A) (A)
                 (A) (A) (A) (A) (A) (A) (A) (A)
       Virtual   (A) (A) (A) (A) (A) (A) (A) (A) (A) (A) (A) (A)
                 (A) (A) (A) (A) (A) (A) (A) (A) (A) (A) (A) (A)
                 (A) (A) (A) (A) (A) (A) (A) (A) (A) (A) (A) (A)
                 (A) (A) (A) (A) (A) (A) (A) (A) (A) (A) (A) (A)
                 (A) (A) (A) (A) (A) (A) (A) (A) (A) (A) (A) (A)
                 (A) (A) (A) (A) (A) (A) (A) (A) (A) (A) (A) (A)
                 (A) (A) (A) (A) (A) (A) (A) (A) (A) (A) (A) (A)
                 (A) (A) (A) (A) (A) (A) (A) (A) (A) (A) (A) (A)
                 (A) (A) (A) (A) (A) (A) (A) (A) (A) (A) (A) (A)
                 (A) (A) (A) (A) (A) (A) (A) (A) (A) (A) (A) (A)
                 (A) (A) (A) (A) (A) (A) (A) (A) (A) (A) (A) (A)
                 (A) (A) (A) (A) (A) (A) (A) (A) (A) (A) (A) (A)
                 (A) (A) (A) (A) (A) (A) (A) (A) (A) (A) (A) (A)
                 (A) (A) (A) (A) (A) (A) (A) (A) (A) (A) (A) (A)
                 (A) (A) (A)
 The electronic state is 1-A.
 Alpha  occ. eigenvalues --  -24.59896 -24.57936 -19.06955 -19.01746 -19.00120
 Alpha  occ. eigenvalues --  -14.34640 -14.28086 -14.23737 -10.25364 -10.23882
 Alpha  occ. eigenvalues --  -10.22620 -10.21270 -10.20325 -10.20225 -10.20200
 Alpha  occ. eigenvalues --  -10.19051 -10.16288 -10.15731 -10.15637 -10.15598
 Alpha  occ. eigenvalues --  -10.15322 -10.14304 -10.14287 -10.13705 -10.11833
 Alpha  occ. eigenvalues --   -1.23238  -1.21592  -1.09773  -1.02357  -1.01318
 Alpha  occ. eigenvalues --   -1.00562  -0.96913  -0.91504  -0.88171  -0.83041
 Alpha  occ. eigenvalues --   -0.79689  -0.79192  -0.78177  -0.76317  -0.71919
 Alpha  occ. eigenvalues --   -0.70220  -0.68191  -0.67213  -0.65815  -0.62801
 Alpha  occ. eigenvalues --   -0.62005  -0.61341  -0.58950  -0.57028  -0.55936
 Alpha  occ. eigenvalues --   -0.54827  -0.52577  -0.51949  -0.50716  -0.49307
 Alpha  occ. eigenvalues --   -0.48537  -0.47802  -0.47727  -0.47320  -0.46675
 Alpha  occ. eigenvalues --   -0.46457  -0.45998  -0.45432  -0.45206  -0.44699
 Alpha  occ. eigenvalues --   -0.43910  -0.43747  -0.42496  -0.42214  -0.40742
 Alpha  occ. eigenvalues --   -0.40533  -0.39856  -0.39445  -0.39030  -0.38036
 Alpha  occ. eigenvalues --   -0.37881  -0.37635  -0.37092  -0.36595  -0.36019
 Alpha  occ. eigenvalues --   -0.35486  -0.35044  -0.34426  -0.34211  -0.29520
 Alpha  occ. eigenvalues --   -0.28903  -0.26933  -0.25958  -0.22933  -0.22606
 Alpha  occ. eigenvalues --   -0.21889  -0.20148
 Alpha virt. eigenvalues --   -0.04848  -0.03983   0.00588   0.03193   0.05770
 Alpha virt. eigenvalues --    0.08624   0.09931   0.10428   0.11265   0.11948
 Alpha virt. eigenvalues --    0.12269   0.12697   0.13421   0.14263   0.14933
 Alpha virt. eigenvalues --    0.15512   0.15903   0.16218   0.16779   0.17141
 Alpha virt. eigenvalues --    0.17916   0.18314   0.18650   0.18870   0.19290
 Alpha virt. eigenvalues --    0.19816   0.20366   0.20877   0.21405   0.23124
 Alpha virt. eigenvalues --    0.23332   0.24153   0.25362   0.25607   0.26295
 Alpha virt. eigenvalues --    0.27552   0.28445   0.28643   0.29875   0.30585
 Alpha virt. eigenvalues --    0.30882   0.31799   0.34851   0.37075   0.40342
 Alpha virt. eigenvalues --    0.40915   0.44052   0.44700   0.49849   0.54302
 Alpha virt. eigenvalues --    0.56016   0.60705   0.62556   0.64111   0.65161
 Alpha virt. eigenvalues --    0.65918   0.67168   0.67755   0.68790   0.69496
 Alpha virt. eigenvalues --    0.70045   0.70384   0.70462   0.71027   0.71929
 Alpha virt. eigenvalues --    0.73361   0.73529   0.73972   0.75012   0.75687
 Alpha virt. eigenvalues --    0.76217   0.76932   0.77068   0.77421   0.77825
 Alpha virt. eigenvalues --    0.78955   0.79099   0.79731   0.80546   0.81874
 Alpha virt. eigenvalues --    0.83700   0.84323   0.86289   0.86560   0.87521
 Alpha virt. eigenvalues --    0.88568   0.90267   0.91518   0.93245   0.94367
 Alpha virt. eigenvalues --    0.95420   0.97050   0.98000   0.98822   1.00220
 Alpha virt. eigenvalues --    1.01134   1.02126   1.02696   1.03302   1.03940
 Alpha virt. eigenvalues --    1.05455   1.06920   1.07313   1.07741   1.08614
 Alpha virt. eigenvalues --    1.09049   1.09997   1.11898   1.13010   1.13378
 Alpha virt. eigenvalues --    1.13729   1.14486   1.16227   1.18204   1.22529
 Alpha virt. eigenvalues --    1.26015   1.29085   1.30407   1.31862   1.33675
 Alpha virt. eigenvalues --    1.35024   1.36894   1.37945   1.40226   1.42788
 Alpha virt. eigenvalues --    1.43329   1.46496   1.49293   1.50391   1.51153
 Alpha virt. eigenvalues --    1.54011   1.57200   1.57484   1.58562   1.61274
 Alpha virt. eigenvalues --    1.64089   1.65029   1.66510   1.68326   1.69494
 Alpha virt. eigenvalues --    1.70776   1.72651   1.76532   1.78610   1.80973
 Alpha virt. eigenvalues --    1.84376   1.86654   1.87906   1.89570   1.90992
 Alpha virt. eigenvalues --    1.94121   1.95856   1.99389   1.99766   2.03947
 Alpha virt. eigenvalues --    2.05378   2.07851   2.11125   2.14722   2.21076
 Alpha virt. eigenvalues --    2.25103   2.39071   2.52859   2.75726   2.83711
 Alpha virt. eigenvalues --    2.97509   3.12333   3.34658   3.56473   3.91283
 Alpha virt. eigenvalues --    4.11148
          Condensed to atoms (all electrons):
               1          2          3          4          5          6
     1  F    9.085580   0.000000   0.000000   0.000000   0.000000  -0.002088
     2  F    0.000000   9.088399   0.000000   0.000000   0.000000  -0.002137
     3  O    0.000000   0.000000   8.072353  -0.001510   0.000001   0.000000
     4  O    0.000000   0.000000  -0.001510   8.231111  -0.063488   0.000000
     5  O    0.000000   0.000000   0.000001  -0.063488   8.129982   0.000000
     6  N   -0.002088  -0.002137   0.000000   0.000000   0.000000   7.208422
     7  N    0.000000   0.000000   0.000000   0.000000   0.000000  -0.004039
     8  N   -0.002910   0.000000  -0.000021  -0.000001   0.000039  -0.000001
     9  C   -0.000001   0.000122   0.000000   0.000000   0.000000  -0.045259
    10  C    0.000004   0.006496   0.000000   0.000000   0.000000   0.258325
    11  C   -0.001121  -0.000064   0.000000   0.000000   0.000000   0.270198
    12  C   -0.000219   0.000000   0.000000   0.000000   0.000000  -0.050845
    13  C   -0.061056  -0.062754  -0.000004   0.000000   0.000000   0.323192
    14  C    0.000000   0.000000   0.000000   0.000000   0.000000   0.002269
    15  C    0.298833   0.001923   0.000002   0.000000   0.000000  -0.083137
    16  C   -0.066091  -0.000180   0.002993  -0.000002   0.000001   0.004547
    17  C    0.002228   0.312697   0.000628   0.000000   0.000000  -0.074814
    18  C    0.002508   0.003298  -0.124591   0.000086  -0.000018  -0.000415
    19  C   -0.000220  -0.059864   0.003788   0.000000   0.000000   0.004025
    20  C    0.000321   0.000000   0.000000   0.000000   0.000002  -0.000001
    21  C    0.000001  -0.000006   0.641118   0.003198   0.001807   0.000000
    22  C   -0.000041   0.000000   0.003731   0.002487   0.003925   0.000000
    23  C    0.000000   0.000000  -0.120820  -0.097989  -0.112715   0.000000
    24  C   -0.003077   0.000000   0.000000   0.000000   0.000000   0.000000
    25  C    0.000000   0.000000  -0.001973   0.222086   0.527981   0.000000
    26  H   -0.000001  -0.000001   0.000000   0.000000   0.000000   0.003954
    27  H    0.000000   0.004042   0.000000   0.000000   0.000000  -0.046994
    28  H    0.000000   0.000626   0.000000   0.000000   0.000000  -0.031750
    29  H    0.010460   0.000000   0.000000   0.000000   0.000000  -0.030656
    30  H    0.000052  -0.000027   0.000000   0.000000   0.000000  -0.053536
    31  H   -0.000001   0.000000   0.000000   0.000000   0.000000   0.002132
    32  H    0.000197   0.000000   0.000000   0.000000   0.000000   0.002081
    33  H    0.000000   0.000000   0.000000   0.000000   0.000000  -0.000355
    34  H    0.000000   0.000000   0.000000   0.000000   0.000000  -0.000032
    35  H    0.000000   0.000000   0.000000   0.000000   0.000000  -0.000007
    36  H    0.000000   0.000000   0.000000   0.000000   0.000000  -0.000013
    37  H    0.000000  -0.002262   0.017736   0.000001   0.000000  -0.000005
    38  H    0.000208   0.000000   0.000000   0.000000  -0.000002   0.000000
    39  H    0.015710   0.000000   0.000000   0.000000   0.000000   0.000001
    40  H    0.000000   0.000000  -0.000006   0.000155   0.010514   0.000000
    41  H    0.005909   0.000000   0.000000   0.000000   0.000000  -0.000001
    42  H    0.000023   0.000000   0.000000   0.000000   0.000000   0.000000
    43  H   -0.000004   0.000000   0.000000   0.000000   0.000000   0.000000
    44  H    0.000000   0.000000   0.000211   0.238917   0.005679   0.000000
               7          8          9         10         11         12
     1  F    0.000000  -0.002910  -0.000001   0.000004  -0.001121  -0.000219
     2  F    0.000000   0.000000   0.000122   0.006496  -0.000064   0.000000
     3  O    0.000000  -0.000021   0.000000   0.000000   0.000000   0.000000
     4  O    0.000000  -0.000001   0.000000   0.000000   0.000000   0.000000
     5  O    0.000000   0.000039   0.000000   0.000000   0.000000   0.000000
     6  N   -0.004039  -0.000001  -0.045259   0.258325   0.270198  -0.050845
     7  N    6.934328   0.000000   0.291013  -0.068851  -0.065337   0.309622
     8  N    0.000000   7.417267   0.000000   0.000000   0.000000   0.000000
     9  C    0.291013   0.000000   5.371470   0.183982  -0.009103  -0.088972
    10  C   -0.068851   0.000000   0.183982   5.390146  -0.072887  -0.002933
    11  C   -0.065337   0.000000  -0.009103  -0.072887   5.384740   0.210351
    12  C    0.309622   0.000000  -0.088972  -0.002933   0.210351   5.245968
    13  C   -0.000106   0.003757   0.002798  -0.065240  -0.065437   0.002371
    14  C   -0.056119   0.000000   0.273940  -0.076865  -0.000109   0.004743
    15  C    0.000002  -0.057491  -0.000061   0.002656  -0.003506   0.000123
    16  C    0.000000   0.199273   0.000000  -0.000060   0.000032  -0.000002
    17  C   -0.000006  -0.000443   0.000337  -0.001806  -0.000225  -0.000118
    18  C    0.000000  -0.030192   0.000000  -0.000022   0.000002   0.000000
    19  C    0.000000   0.005869   0.000006   0.000480  -0.000057   0.000001
    20  C    0.000000   0.239474   0.000000   0.000000   0.000000   0.000000
    21  C    0.000000  -0.037124   0.000000   0.000000   0.000000   0.000000
    22  C    0.000000   0.261552   0.000000   0.000000   0.000000   0.000000
    23  C    0.000000  -0.015687   0.000000   0.000000   0.000000   0.000000
    24  C    0.000000  -0.059300   0.000000   0.000000  -0.000004   0.000000
    25  C    0.000000   0.003938   0.000000   0.000000   0.000000   0.000000
    26  H   -0.043710   0.000000   0.357829  -0.067723  -0.001118  -0.002893
    27  H   -0.000328   0.000000  -0.054500   0.333410  -0.002591  -0.000300
    28  H    0.002758   0.000000  -0.027916   0.352014   0.003609   0.000090
    29  H    0.002426   0.000001   0.000183   0.003407   0.341766  -0.021483
    30  H    0.000313   0.000000  -0.000075  -0.003456   0.336302  -0.055670
    31  H   -0.029662   0.000000   0.004451  -0.000281  -0.047344   0.367941
    32  H   -0.043007   0.000000  -0.003883  -0.001000  -0.065116   0.358315
    33  H    0.318606   0.000000  -0.056653  -0.000885  -0.000419  -0.050336
    34  H    0.004291   0.000000  -0.034319   0.004783   0.000015   0.000053
    35  H    0.002544   0.000000  -0.041218   0.001931   0.000009  -0.000117
    36  H   -0.001805   0.000000  -0.044110  -0.005694  -0.000019  -0.000059
    37  H    0.000000  -0.000005   0.000000   0.000000   0.000001   0.000000
    38  H    0.000000  -0.034076   0.000000   0.000000   0.000000   0.000000
    39  H    0.000000  -0.031912   0.000000   0.000000   0.000001   0.000000
    40  H    0.000000  -0.037994   0.000000   0.000000   0.000000   0.000000
    41  H    0.000000  -0.001335   0.000000   0.000000  -0.000012   0.000000
    42  H    0.000000  -0.000561   0.000000   0.000000   0.000000   0.000000
    43  H    0.000000   0.002716   0.000000   0.000000   0.000000   0.000000
    44  H    0.000000   0.000000   0.000000   0.000000   0.000000   0.000000
              13         14         15         16         17         18
     1  F   -0.061056   0.000000   0.298833  -0.066091   0.002228   0.002508
     2  F   -0.062754   0.000000   0.001923  -0.000180   0.312697   0.003298
     3  O   -0.000004   0.000000   0.000002   0.002993   0.000628  -0.124591
     4  O    0.000000   0.000000   0.000000  -0.000002   0.000000   0.000086
     5  O    0.000000   0.000000   0.000000   0.000001   0.000000  -0.000018
     6  N    0.323192   0.002269  -0.083137   0.004547  -0.074814  -0.000415
     7  N   -0.000106  -0.056119   0.000002   0.000000  -0.000006   0.000000
     8  N    0.003757   0.000000  -0.057491   0.199273  -0.000443  -0.030192
     9  C    0.002798   0.273940  -0.000061   0.000000   0.000337   0.000000
    10  C   -0.065240  -0.076865   0.002656  -0.000060  -0.001806  -0.000022
    11  C   -0.065437  -0.000109  -0.003506   0.000032  -0.000225   0.000002
    12  C    0.002371   0.004743   0.000123  -0.000002  -0.000118   0.000000
    13  C    5.695174  -0.000074   0.128863  -0.055340   0.042335  -0.036043
    14  C   -0.000074   5.347089   0.000000   0.000000  -0.000001   0.000000
    15  C    0.128863   0.000000   5.326941   0.114497  -0.009764   0.009221
    16  C   -0.055340   0.000000   0.114497   5.483494  -0.038938   0.186853
    17  C    0.042335  -0.000001  -0.009764  -0.038938   5.349352  -0.014228
    18  C   -0.036043   0.000000   0.009221   0.186853  -0.014228   6.158114
    19  C   -0.070632   0.000000  -0.049372  -0.048593   0.157210   0.196421
    20  C    0.000201   0.000000   0.001333  -0.046495  -0.000008   0.001323
    21  C   -0.000680   0.000000   0.005677   0.000883   0.009087  -0.038119
    22  C   -0.000100   0.000000   0.000713  -0.066858   0.000031  -0.013616
    23  C    0.000005   0.000000  -0.000593  -0.023386  -0.000030  -0.174985
    24  C   -0.000070   0.000000  -0.000880   0.002039   0.000000   0.000003
    25  C    0.000000   0.000000  -0.000002  -0.000599   0.000000   0.006686
    26  H   -0.000089  -0.030482  -0.000021   0.000000  -0.000005   0.000000
    27  H   -0.003289   0.001751  -0.000304   0.000006   0.002321  -0.000003
    28  H   -0.002278  -0.000200   0.000520  -0.000006  -0.001044  -0.000003
    29  H   -0.010745   0.000002   0.002401   0.000059  -0.000385  -0.000013
    30  H   -0.001441   0.000033   0.000152   0.000042   0.001589  -0.000005
    31  H   -0.000048  -0.000095  -0.000006   0.000000   0.000001   0.000000
    32  H   -0.000190   0.000107   0.000055   0.000002   0.000003   0.000000
    33  H   -0.000008  -0.004278   0.000000   0.000000   0.000000   0.000000
    34  H    0.000001   0.359803   0.000000   0.000000   0.000000   0.000000
    35  H    0.000001   0.361370   0.000000   0.000000   0.000000   0.000000
    36  H    0.000000   0.361931   0.000000   0.000000   0.000000   0.000000
    37  H    0.004994   0.000000  -0.000661   0.004042  -0.034261  -0.062295
    38  H    0.000005   0.000000   0.000293   0.002658   0.000000  -0.000078
    39  H    0.000249   0.000000   0.000348  -0.003843  -0.000008   0.000060
    40  H    0.000000   0.000000  -0.000068   0.002960   0.000000  -0.000434
    41  H    0.000042   0.000000   0.000840  -0.000068  -0.000005  -0.000018
    42  H    0.000000   0.000000  -0.000008  -0.000169   0.000000  -0.000007
    43  H    0.000000   0.000000  -0.000009  -0.000012   0.000000  -0.000001
    44  H    0.000000   0.000000   0.000000   0.000000   0.000000   0.000008
              19         20         21         22         23         24
     1  F   -0.000220   0.000321   0.000001  -0.000041   0.000000  -0.003077
     2  F   -0.059864   0.000000  -0.000006   0.000000   0.000000   0.000000
     3  O    0.003788   0.000000   0.641118   0.003731  -0.120820   0.000000
     4  O    0.000000   0.000000   0.003198   0.002487  -0.097989   0.000000
     5  O    0.000000   0.000002   0.001807   0.003925  -0.112715   0.000000
     6  N    0.004025  -0.000001   0.000000   0.000000   0.000000   0.000000
     7  N    0.000000   0.000000   0.000000   0.000000   0.000000   0.000000
     8  N    0.005869   0.239474  -0.037124   0.261552  -0.015687  -0.059300
     9  C    0.000006   0.000000   0.000000   0.000000   0.000000   0.000000
    10  C    0.000480   0.000000   0.000000   0.000000   0.000000   0.000000
    11  C   -0.000057   0.000000   0.000000   0.000000   0.000000  -0.000004
    12  C    0.000001   0.000000   0.000000   0.000000   0.000000   0.000000
    13  C   -0.070632   0.000201  -0.000680  -0.000100   0.000005  -0.000070
    14  C    0.000000   0.000000   0.000000   0.000000   0.000000   0.000000
    15  C   -0.049372   0.001333   0.005677   0.000713  -0.000593  -0.000880
    16  C   -0.048593  -0.046495   0.000883  -0.066858  -0.023386   0.002039
    17  C    0.157210  -0.000008   0.009087   0.000031  -0.000030   0.000000
    18  C    0.196421   0.001323  -0.038119  -0.013616  -0.174985   0.000003
    19  C    5.755295  -0.000065  -0.074927  -0.001341   0.015591   0.000003
    20  C   -0.000065   5.230907   0.000058  -0.069680   0.002831   0.261567
    21  C   -0.074927   0.000058   5.170421  -0.019875  -0.041881  -0.000011
    22  C   -0.001341  -0.069680  -0.019875   5.064537   0.337086  -0.000224
    23  C    0.015591   0.002831  -0.041881   0.337086   6.396820  -0.000117
    24  C    0.000003   0.261567  -0.000011  -0.000224  -0.000117   5.377295
    25  C   -0.000009  -0.000048  -0.040288  -0.084519   0.059879   0.000002
    26  H    0.000000   0.000000   0.000000   0.000000   0.000000   0.000000
    27  H    0.000009   0.000000   0.000000   0.000000   0.000000   0.000000
    28  H   -0.000160   0.000000   0.000000   0.000000   0.000000   0.000000
    29  H    0.000018   0.000002   0.000000   0.000000   0.000000  -0.000008
    30  H   -0.000018   0.000000   0.000000   0.000000   0.000000   0.000000
    31  H    0.000000   0.000000   0.000000   0.000000   0.000000   0.000000
    32  H    0.000000   0.000000   0.000000   0.000000   0.000000   0.000000
    33  H    0.000000   0.000000   0.000000   0.000000   0.000000   0.000000
    34  H    0.000000   0.000000   0.000000   0.000000   0.000000   0.000000
    35  H    0.000000   0.000000   0.000000   0.000000   0.000000   0.000000
    36  H    0.000000   0.000000   0.000000   0.000000   0.000000   0.000000
    37  H    0.372362   0.000000   0.001222  -0.000071   0.001595   0.000000
    38  H    0.000001   0.360994  -0.000010  -0.001716   0.000785  -0.050639
    39  H    0.000003   0.359391   0.000007   0.002585  -0.000125  -0.044916
    40  H    0.000001  -0.003581   0.002981   0.371956  -0.048222   0.000117
    41  H    0.000003  -0.037325  -0.000002  -0.000035   0.000016   0.360140
    42  H    0.000000  -0.041919   0.000002   0.002773  -0.000106   0.363445
    43  H    0.000000  -0.034730   0.000000  -0.000001   0.000000   0.349953
    44  H    0.000000   0.000000  -0.000103  -0.000229   0.012178   0.000000
              25         26         27         28         29         30
     1  F    0.000000  -0.000001   0.000000   0.000000   0.010460   0.000052
     2  F    0.000000  -0.000001   0.004042   0.000626   0.000000  -0.000027
     3  O   -0.001973   0.000000   0.000000   0.000000   0.000000   0.000000
     4  O    0.222086   0.000000   0.000000   0.000000   0.000000   0.000000
     5  O    0.527981   0.000000   0.000000   0.000000   0.000000   0.000000
     6  N    0.000000   0.003954  -0.046994  -0.031750  -0.030656  -0.053536
     7  N    0.000000  -0.043710  -0.000328   0.002758   0.002426   0.000313
     8  N    0.003938   0.000000   0.000000   0.000000   0.000001   0.000000
     9  C    0.000000   0.357829  -0.054500  -0.027916   0.000183  -0.000075
    10  C    0.000000  -0.067723   0.333410   0.352014   0.003407  -0.003456
    11  C    0.000000  -0.001118  -0.002591   0.003609   0.341766   0.336302
    12  C    0.000000  -0.002893  -0.000300   0.000090  -0.021483  -0.055670
    13  C    0.000000  -0.000089  -0.003289  -0.002278  -0.010745  -0.001441
    14  C    0.000000  -0.030482   0.001751  -0.000200   0.000002   0.000033
    15  C   -0.000002  -0.000021  -0.000304   0.000520   0.002401   0.000152
    16  C   -0.000599   0.000000   0.000006  -0.000006   0.000059   0.000042
    17  C    0.000000  -0.000005   0.002321  -0.001044  -0.000385   0.001589
    18  C    0.006686   0.000000  -0.000003  -0.000003  -0.000013  -0.000005
    19  C   -0.000009   0.000000   0.000009  -0.000160   0.000018  -0.000018
    20  C   -0.000048   0.000000   0.000000   0.000000   0.000002   0.000000
    21  C   -0.040288   0.000000   0.000000   0.000000   0.000000   0.000000
    22  C   -0.084519   0.000000   0.000000   0.000000   0.000000   0.000000
    23  C    0.059879   0.000000   0.000000   0.000000   0.000000   0.000000
    24  C    0.000002   0.000000   0.000000   0.000000  -0.000008   0.000000
    25  C    4.703407   0.000000   0.000000   0.000000   0.000000   0.000000
    26  H    0.000000   0.559447   0.004927  -0.000213   0.000026   0.000215
    27  H    0.000000   0.004927   0.593453  -0.029924  -0.000150   0.008709
    28  H    0.000000  -0.000213  -0.029924   0.524297  -0.000034  -0.000093
    29  H    0.000000   0.000026  -0.000150  -0.000034   0.528310  -0.032159
    30  H    0.000000   0.000215   0.008709  -0.000093  -0.032159   0.610043
    31  H    0.000000   0.000097   0.000071   0.000005  -0.000197   0.000602
    32  H    0.000000   0.007073   0.000168   0.000037  -0.000534   0.004739
    33  H    0.000000   0.005451   0.003203  -0.000012  -0.000027   0.002579
    34  H    0.000000  -0.004001  -0.000139  -0.000124   0.000000  -0.000001
    35  H    0.000000  -0.002949  -0.000274   0.001892   0.000000   0.000000
    36  H    0.000000   0.003925   0.004982   0.000043   0.000000   0.000008
    37  H    0.000003   0.000000   0.000002   0.000001   0.000000   0.000000
    38  H   -0.000016   0.000000   0.000000   0.000000   0.000000   0.000000
    39  H    0.000000   0.000000   0.000000   0.000000  -0.000007   0.000000
    40  H    0.000697   0.000000   0.000000   0.000000   0.000000   0.000000
    41  H    0.000000   0.000000   0.000000   0.000000   0.000359  -0.000001
    42  H    0.000000   0.000000   0.000000   0.000000   0.000000   0.000000
    43  H    0.000000   0.000000   0.000000   0.000000   0.000000   0.000000
    44  H   -0.030309   0.000000   0.000000   0.000000   0.000000   0.000000
              31         32         33         34         35         36
     1  F   -0.000001   0.000197   0.000000   0.000000   0.000000   0.000000
     2  F    0.000000   0.000000   0.000000   0.000000   0.000000   0.000000
     3  O    0.000000   0.000000   0.000000   0.000000   0.000000   0.000000
     4  O    0.000000   0.000000   0.000000   0.000000   0.000000   0.000000
     5  O    0.000000   0.000000   0.000000   0.000000   0.000000   0.000000
     6  N    0.002132   0.002081  -0.000355  -0.000032  -0.000007  -0.000013
     7  N   -0.029662  -0.043007   0.318606   0.004291   0.002544  -0.001805
     8  N    0.000000   0.000000   0.000000   0.000000   0.000000   0.000000
     9  C    0.004451  -0.003883  -0.056653  -0.034319  -0.041218  -0.044110
    10  C   -0.000281  -0.001000  -0.000885   0.004783   0.001931  -0.005694
    11  C   -0.047344  -0.065116  -0.000419   0.000015   0.000009  -0.000019
    12  C    0.367941   0.358315  -0.050336   0.000053  -0.000117  -0.000059
    13  C   -0.000048  -0.000190  -0.000008   0.000001   0.000001   0.000000
    14  C   -0.000095   0.000107  -0.004278   0.359803   0.361370   0.361931
    15  C   -0.000006   0.000055   0.000000   0.000000   0.000000   0.000000
    16  C    0.000000   0.000002   0.000000   0.000000   0.000000   0.000000
    17  C    0.000001   0.000003   0.000000   0.000000   0.000000   0.000000
    18  C    0.000000   0.000000   0.000000   0.000000   0.000000   0.000000
    19  C    0.000000   0.000000   0.000000   0.000000   0.000000   0.000000
    20  C    0.000000   0.000000   0.000000   0.000000   0.000000   0.000000
    21  C    0.000000   0.000000   0.000000   0.000000   0.000000   0.000000
    22  C    0.000000   0.000000   0.000000   0.000000   0.000000   0.000000
    23  C    0.000000   0.000000   0.000000   0.000000   0.000000   0.000000
    24  C    0.000000   0.000000   0.000000   0.000000   0.000000   0.000000
    25  C    0.000000   0.000000   0.000000   0.000000   0.000000   0.000000
    26  H    0.000097   0.007073   0.005451  -0.004001  -0.002949   0.003925
    27  H    0.000071   0.000168   0.003203  -0.000139  -0.000274   0.004982
    28  H    0.000005   0.000037  -0.000012  -0.000124   0.001892   0.000043
    29  H   -0.000197  -0.000534  -0.000027   0.000000   0.000000   0.000000
    30  H    0.000602   0.004739   0.002579  -0.000001   0.000000   0.000008
    31  H    0.532510  -0.021664  -0.004587  -0.000006   0.000001   0.000005
    32  H   -0.021664   0.544329   0.005100  -0.000034  -0.000001   0.000007
    33  H   -0.004587   0.005100   0.516104  -0.000373  -0.000004   0.004778
    34  H   -0.000006  -0.000034  -0.000373   0.509779  -0.022142  -0.028799
    35  H    0.000001  -0.000001  -0.000004  -0.022142   0.535704  -0.027710
    36  H    0.000005   0.000007   0.004778  -0.028799  -0.027710   0.551828
    37  H    0.000000   0.000000   0.000000   0.000000   0.000000   0.000000
    38  H    0.000000   0.000000   0.000000   0.000000   0.000000   0.000000
    39  H    0.000000   0.000000   0.000000   0.000000   0.000000   0.000000
    40  H    0.000000   0.000000   0.000000   0.000000   0.000000   0.000000
    41  H    0.000000   0.000000   0.000000   0.000000   0.000000   0.000000
    42  H    0.000000   0.000000   0.000000   0.000000   0.000000   0.000000
    43  H    0.000000   0.000000   0.000000   0.000000   0.000000   0.000000
    44  H    0.000000   0.000000   0.000000   0.000000   0.000000   0.000000
              37         38         39         40         41         42
     1  F    0.000000   0.000208   0.015710   0.000000   0.005909   0.000023
     2  F   -0.002262   0.000000   0.000000   0.000000   0.000000   0.000000
     3  O    0.017736   0.000000   0.000000  -0.000006   0.000000   0.000000
     4  O    0.000001   0.000000   0.000000   0.000155   0.000000   0.000000
     5  O    0.000000  -0.000002   0.000000   0.010514   0.000000   0.000000
     6  N   -0.000005   0.000000   0.000001   0.000000  -0.000001   0.000000
     7  N    0.000000   0.000000   0.000000   0.000000   0.000000   0.000000
     8  N   -0.000005  -0.034076  -0.031912  -0.037994  -0.001335  -0.000561
     9  C    0.000000   0.000000   0.000000   0.000000   0.000000   0.000000
    10  C    0.000000   0.000000   0.000000   0.000000   0.000000   0.000000
    11  C    0.000001   0.000000   0.000001   0.000000  -0.000012   0.000000
    12  C    0.000000   0.000000   0.000000   0.000000   0.000000   0.000000
    13  C    0.004994   0.000005   0.000249   0.000000   0.000042   0.000000
    14  C    0.000000   0.000000   0.000000   0.000000   0.000000   0.000000
    15  C   -0.000661   0.000293   0.000348  -0.000068   0.000840  -0.000008
    16  C    0.004042   0.002658  -0.003843   0.002960  -0.000068  -0.000169
    17  C   -0.034261   0.000000  -0.000008   0.000000  -0.000005   0.000000
    18  C   -0.062295  -0.000078   0.000060  -0.000434  -0.000018  -0.000007
    19  C    0.372362   0.000001   0.000003   0.000001   0.000003   0.000000
    20  C    0.000000   0.360994   0.359391  -0.003581  -0.037325  -0.041919
    21  C    0.001222  -0.000010   0.000007   0.002981  -0.000002   0.000002
    22  C   -0.000071  -0.001716   0.002585   0.371956  -0.000035   0.002773
    23  C    0.001595   0.000785  -0.000125  -0.048222   0.000016  -0.000106
    24  C    0.000000  -0.050639  -0.044916   0.000117   0.360140   0.363445
    25  C    0.000003  -0.000016   0.000000   0.000697   0.000000   0.000000
[...]
    19  C    5.746577  -0.000063  -0.076335  -0.001332   0.015953   0.000002
    20  C   -0.000063   5.228867   0.000036  -0.062922   0.002491   0.262908
    21  C   -0.076335   0.000036   5.193127  -0.027072  -0.062166  -0.000004
    22  C   -0.001332  -0.062922  -0.027072   5.126250   0.306820   0.000299
    23  C    0.015953   0.002491  -0.062166   0.306820   6.457570  -0.000078
    24  C    0.000002   0.262908  -0.000004   0.000299  -0.000078   5.388627
    25  C    0.000000  -0.000041  -0.037572  -0.096225   0.061849   0.000002
    26  H   -0.000006   0.000000   0.000000   0.000000   0.000000   0.000000
    27  H   -0.000009   0.000000   0.000000   0.000000   0.000000   0.000000
    28  H    0.000078   0.000000   0.000000   0.000000   0.000000   0.000000
    29  H    0.000007   0.000002   0.000000   0.000000   0.000000  -0.000047
    30  H   -0.000001   0.000000   0.000000   0.000000   0.000000   0.000000
    31  H    0.000000   0.000000   0.000000   0.000000   0.000000   0.000000
    32  H    0.000000  -0.000019   0.000000   0.000000   0.000000   0.000007
    33  H    0.000000   0.000000   0.000000   0.000000   0.000000   0.000000
    34  H    0.000000   0.000000   0.000000   0.000000   0.000000   0.000000
    35  H    0.000000   0.000000   0.000000   0.000000   0.000000   0.000000
    36  H    0.000000   0.000000   0.000000   0.000000   0.000000   0.000000
    37  H    0.368214   0.000000   0.000891  -0.000073   0.001672   0.000000
    38  H    0.000001   0.359125  -0.000013  -0.000100   0.000644  -0.045636
    39  H    0.000003   0.358374   0.000004   0.002231  -0.000110  -0.046125
    40  H    0.000000  -0.002204   0.003020   0.362397  -0.060159   0.000121
    41  H    0.000004  -0.041073  -0.000001  -0.000020   0.000011   0.350156
    42  H    0.000000  -0.040020   0.000001   0.002113  -0.000075   0.361307
    43  H    0.000000  -0.035102   0.000000  -0.000023   0.000000   0.351686
    44  H    0.000000   0.000000  -0.000061  -0.000289   0.011858   0.000000
              25         26         27         28         29         30
     1  F    0.000000  -0.000016   0.000000   0.000000   0.010922   0.000203
     2  F    0.000000   0.000000  -0.000133   0.022906   0.000000  -0.000001
     3  O   -0.004041   0.000000   0.000000   0.000000   0.000000   0.000000
     4  O    0.223565   0.000000   0.000000   0.000000   0.000000   0.000000
     5  O    0.517153   0.000000   0.000000   0.000000   0.000000   0.000000
     6  N    0.000000   0.000860  -0.039516  -0.026668  -0.026727  -0.043549
     7  N    0.000000  -0.042309   0.000518   0.002251   0.002432   0.000698
     8  N    0.004665   0.000000   0.000000   0.000000   0.000001   0.000000
     9  C    0.000000   0.364497  -0.061116  -0.031042   0.000148  -0.000619
    10  C    0.000000  -0.065668   0.347964   0.327137   0.002795  -0.004031
    11  C    0.000000  -0.000941  -0.002347   0.002598   0.342213   0.349884
    12  C    0.000000  -0.001985  -0.000978  -0.000022  -0.029262  -0.058913
    13  C    0.000000   0.002351   0.002457  -0.007796  -0.005914   0.002800
    14  C    0.000000  -0.030585   0.001938   0.001617   0.000003   0.000025
    15  C   -0.000003  -0.000150  -0.000149  -0.000030  -0.000432   0.000240
    16  C   -0.000587   0.000001   0.000001   0.000018   0.000009   0.000010
    17  C    0.000000   0.000032   0.000291  -0.001421   0.000117   0.000091
    18  C    0.006014   0.000000   0.000000  -0.000024  -0.000014   0.000000
    19  C    0.000000  -0.000006  -0.000009   0.000078   0.000007  -0.000001
    20  C   -0.000041   0.000000   0.000000   0.000000   0.000002   0.000000
    21  C   -0.037572   0.000000   0.000000   0.000000   0.000000   0.000000
    22  C   -0.096225   0.000000   0.000000   0.000000   0.000000   0.000000
    23  C    0.061849   0.000000   0.000000   0.000000   0.000000   0.000000
    24  C    0.000002   0.000000   0.000000   0.000000  -0.000047   0.000000
    25  C    4.688911   0.000000   0.000000   0.000000   0.000000   0.000000
    26  H    0.000000   0.551374   0.004417   0.000660   0.000048   0.000136
    27  H    0.000000   0.004417   0.557255  -0.018389   0.000083   0.007046
    28  H    0.000000   0.000660  -0.018389   0.504688  -0.000031   0.000173
    29  H    0.000000   0.000048   0.000083  -0.000031   0.514388  -0.021114
    30  H    0.000000   0.000136   0.007046   0.000173  -0.021114   0.559426
    31  H    0.000000   0.000068   0.000072   0.000008   0.000576   0.001170
    32  H    0.000000   0.005448   0.000150   0.000052  -0.000356   0.004533
    33  H    0.000000   0.005193   0.003511   0.000006  -0.000012   0.003075
    34  H    0.000000  -0.003935  -0.000192  -0.000132   0.000000  -0.000002
    35  H    0.000000  -0.002430  -0.000192   0.001561   0.000000   0.000000
    36  H    0.000000   0.003781   0.004998   0.000081   0.000000   0.000009
    37  H    0.000005   0.000000   0.000000   0.000008   0.000000   0.000000
    38  H   -0.000024   0.000000   0.000000   0.000000   0.000000   0.000000
    39  H    0.000000   0.000000   0.000000   0.000000  -0.000010   0.000000
    40  H    0.000872   0.000000   0.000000   0.000000   0.000000   0.000000
    41  H    0.000000   0.000000   0.000000   0.000000   0.000855  -0.000001
    42  H    0.000000   0.000000   0.000000   0.000000   0.000001   0.000000
    43  H    0.000000   0.000000   0.000000   0.000000   0.000000   0.000000
    44  H   -0.028689   0.000000   0.000000   0.000000   0.000000   0.000000
              31         32         33         34         35         36
     1  F    0.000022   0.016414   0.000000   0.000000   0.000000   0.000000
     2  F    0.000000   0.000000   0.000000   0.000000  -0.000001   0.000000
     3  O    0.000000   0.000000   0.000000   0.000000   0.000000   0.000000
     4  O    0.000000   0.000000   0.000000   0.000000   0.000000   0.000000
     5  O    0.000000   0.000000   0.000000   0.000000   0.000000   0.000000
     6  N    0.002660   0.000958  -0.000176  -0.000040  -0.000005  -0.000003
     7  N   -0.029556  -0.035097   0.315048   0.004582   0.002294  -0.001814
     8  N    0.000000   0.000001   0.000000   0.000000   0.000000   0.000000
     9  C    0.003994  -0.002906  -0.055953  -0.034305  -0.039830  -0.044009
    10  C   -0.000242  -0.000782  -0.001217   0.004577   0.002011  -0.005901
    11  C   -0.045574  -0.062809  -0.000837   0.000014   0.000008  -0.000021
    12  C    0.356829   0.339634  -0.049631   0.000010  -0.000100  -0.000044
    13  C   -0.000004   0.000258   0.000009   0.000000   0.000003   0.000001
    14  C   -0.000059   0.000087  -0.003409   0.357644   0.361493   0.363243
    15  C    0.000003  -0.000340  -0.000002   0.000000   0.000000   0.000000
    16  C    0.000001   0.000145   0.000000   0.000000   0.000000   0.000000
    17  C    0.000001   0.000010   0.000000   0.000000  -0.000002   0.000000
    18  C    0.000000  -0.000003   0.000000   0.000000   0.000000   0.000000
    19  C    0.000000   0.000000   0.000000   0.000000   0.000000   0.000000
    20  C    0.000000  -0.000019   0.000000   0.000000   0.000000   0.000000
    21  C    0.000000   0.000000   0.000000   0.000000   0.000000   0.000000
    22  C    0.000000   0.000000   0.000000   0.000000   0.000000   0.000000
    23  C    0.000000   0.000000   0.000000   0.000000   0.000000   0.000000
    24  C    0.000000   0.000007   0.000000   0.000000   0.000000   0.000000
    25  C    0.000000   0.000000   0.000000   0.000000   0.000000   0.000000
    26  H    0.000068   0.005448   0.005193  -0.003935  -0.002430   0.003781
    27  H    0.000072   0.000150   0.003511  -0.000192  -0.000192   0.004998
    28  H    0.000008   0.000052   0.000006  -0.000132   0.001561   0.000081
    29  H    0.000576  -0.000356  -0.000012   0.000000   0.000000   0.000000
    30  H    0.001170   0.004533   0.003075  -0.000002   0.000000   0.000009
    31  H    0.539265  -0.018547  -0.003601  -0.000008   0.000001   0.000004
    32  H   -0.018547   0.537990   0.004517  -0.000028   0.000000   0.000006
    33  H   -0.003601   0.004517   0.519267  -0.000408  -0.000005   0.004725
    34  H   -0.000008  -0.000028  -0.000408   0.508985  -0.022211  -0.028088
    35  H    0.000001   0.000000  -0.000005  -0.022211   0.531583  -0.027655
    36  H    0.000004   0.000006   0.004725  -0.028088  -0.027655   0.549926
    37  H    0.000000   0.000000   0.000000   0.000000   0.000000   0.000000
    38  H    0.000000   0.000000   0.000000   0.000000   0.000000   0.000000
    39  H    0.000000   0.000100   0.000000   0.000000   0.000000   0.000000
    40  H    0.000000   0.000000   0.000000   0.000000   0.000000   0.000000
    41  H   -0.000001  -0.000019   0.000000   0.000000   0.000000   0.000000
    42  H    0.000000   0.000000   0.000000   0.000000   0.000000   0.000000
    43  H    0.000000   0.000000   0.000000   0.000000   0.000000   0.000000
    44  H    0.000000   0.000000   0.000000   0.000000   0.000000   0.000000
              37         38         39         40         41         42
     1  F    0.000000   0.000284   0.015439   0.000000   0.015882   0.000081
     2  F   -0.001875   0.000000   0.000000   0.000000   0.000000   0.000000
     3  O    0.019992   0.000000   0.000000  -0.000002   0.000000   0.000000
     4  O    0.000000   0.000000   0.000000   0.000296   0.000000   0.000000
     5  O    0.000000  -0.000009   0.000000   0.023764   0.000000   0.000000
     6  N   -0.000007   0.000000   0.000001   0.000000  -0.000001   0.000000
     7  N    0.000000   0.000000   0.000000   0.000000   0.000000   0.000000
     8  N   -0.000004  -0.032473  -0.030959  -0.033611  -0.000888  -0.000355
     9  C    0.000000   0.000000   0.000000   0.000000   0.000000   0.000000
    10  C    0.000000   0.000000   0.000000   0.000000   0.000000   0.000000
    11  C    0.000000   0.000000   0.000002   0.000000  -0.000074   0.000000
    12  C    0.000000   0.000000  -0.000008   0.000000   0.000011   0.000000
    13  C    0.005232   0.000005   0.000208   0.000000   0.000061   0.000002
    14  C    0.000000   0.000000   0.000000   0.000000   0.000000   0.000000
    15  C   -0.000587   0.000284  -0.000554  -0.000069  -0.000416  -0.000016
    16  C    0.004011   0.002472  -0.002848   0.002966  -0.000612  -0.000144
    17  C   -0.034161   0.000000  -0.000007   0.000000  -0.000007   0.000000
    18  C   -0.060129  -0.000056   0.000112  -0.000476  -0.000011  -0.000005
    19  C    0.368214   0.000001   0.000003   0.000000   0.000004   0.000000
    20  C    0.000000   0.359125   0.358374  -0.002204  -0.041073  -0.040020
    21  C    0.000891  -0.000013   0.000004   0.003020  -0.000001   0.000001
    22  C   -0.000073  -0.000100   0.002231   0.362397  -0.000020   0.002113
    23  C    0.001672   0.000644  -0.000110  -0.060159   0.000011  -0.000075
    24  C    0.000000  -0.045636  -0.046125   0.000121   0.350156   0.361307
    25  C    0.000005  -0.000024   0.000000   0.000872   0.000000   0.000000
    26  H    0.000000   0.000000   0.000000   0.000000   0.000000   0.000000
    27  H    0.000000   0.000000   0.000000   0.000000   0.000000   0.000000
    28  H    0.000008   0.000000   0.000000   0.000000   0.000000   0.000000
    29  H    0.000000   0.000000  -0.000010   0.000000   0.000855   0.000001
    30  H    0.000000   0.000000   0.000000   0.000000  -0.000001   0.000000
    31  H    0.000000   0.000000   0.000000   0.000000  -0.000001   0.000000
    32  H    0.000000   0.000000   0.000100   0.000000  -0.000019   0.000000
    33  H    0.000000   0.000000   0.000000   0.000000   0.000000   0.000000
    34  H    0.000000   0.000000   0.000000   0.000000   0.000000   0.000000
    35  H    0.000000   0.000000   0.000000   0.000000   0.000000   0.000000
    36  H    0.000000   0.000000   0.000000   0.000000   0.000000   0.000000
    37  H    0.451750   0.000000   0.000000   0.000000   0.000000   0.000000
    38  H    0.000000   0.514787  -0.022268   0.003040   0.003481  -0.001686
    39  H    0.000000  -0.022268   0.488948   0.000116  -0.003613   0.003135
    40  H    0.000000   0.003040   0.000116   0.440537  -0.000002   0.000234
    41  H    0.000000   0.003481  -0.003613  -0.000002   0.512002  -0.022388
    42  H    0.000000  -0.001686   0.003135   0.000234  -0.022388   0.513892
    43  H    0.000000  -0.001101   0.000315  -0.000016  -0.023104  -0.023387
    44  H    0.000000   0.000000   0.000000  -0.000017   0.000000   0.000000
              43         44
     1  F    0.000014   0.000000
     2  F    0.000000   0.000000
     3  O    0.000000   0.000197
     4  O    0.000000   0.237500
     5  O    0.000000   0.004348
     6  N    0.000000   0.000000
     7  N    0.000000   0.000000
     8  N    0.002517   0.000000
     9  C    0.000000   0.000000
    10  C    0.000000   0.000000
    11  C    0.000000   0.000000
    12  C    0.000000   0.000000
    13  C    0.000000   0.000000
    14  C    0.000000   0.000000
    15  C   -0.000001   0.000000
    16  C   -0.000017   0.000000
    17  C    0.000000   0.000000
    18  C    0.000000   0.000005
    19  C    0.000000   0.000000
    20  C   -0.035102   0.000000
    21  C    0.000000  -0.000061
    22  C   -0.000023  -0.000289
    23  C    0.000000   0.011858
    24  C    0.351686   0.000000
    25  C    0.000000  -0.028689
    26  H    0.000000   0.000000
    27  H    0.000000   0.000000
    28  H    0.000000   0.000000
    29  H    0.000000   0.000000
    30  H    0.000000   0.000000
    31  H    0.000000   0.000000
    32  H    0.000000   0.000000
    33  H    0.000000   0.000000
    34  H    0.000000   0.000000
    35  H    0.000000   0.000000
    36  H    0.000000   0.000000
    37  H    0.000000   0.000000
    38  H   -0.001101   0.000000
    39  H    0.000315   0.000000
    40  H   -0.000016  -0.000017
    41  H   -0.023104   0.000000
    42  H   -0.023387   0.000000
    43  H    0.527726   0.000000
    44  H    0.000000   0.414767
 Mulliken charges:
               1
     1  F   -0.279292
     2  F   -0.284566
     3  O   -0.496587
     4  O   -0.540450
     5  O   -0.517992
     6  N   -0.668964
     7  N   -0.541935
     8  N   -0.823030
     9  C   -0.078637
    10  C   -0.209738
    11  C   -0.215065
    12  C   -0.237567
    13  C    0.289941
    14  C   -0.549205
    15  C    0.269343
    16  C    0.345951
    17  C    0.296654
    18  C   -0.076470
    19  C   -0.198381
    20  C   -0.226597
    21  C    0.410218
    22  C    0.212573
    23  C   -0.202888
    24  C   -0.562844
    25  C    0.664147
    26  H    0.209161
    27  H    0.192320
    28  H    0.221712
    29  H    0.209321
    30  H    0.198711
    31  H    0.192918
    32  H    0.210599
    33  H    0.259901
    34  H    0.213538
    35  H    0.193477
    36  H    0.180760
    37  H    0.245060
    38  H    0.219245
    39  H    0.237511
    40  H    0.259193
    41  H    0.209767
    42  H    0.207314
    43  H    0.200493
    44  H    0.360381
 Sum of Mulliken charges =   0.00000
 Mulliken charges with hydrogens summed into heavy atoms:
               1
     1  F   -0.279292
     2  F   -0.284566
     3  O   -0.496587
     4  O   -0.180069
     5  O   -0.517992
     6  N   -0.668964
     7  N   -0.282034
     8  N   -0.823030
     9  C    0.130524
    10  C    0.204295
    11  C    0.192967
    12  C    0.165950
    13  C    0.289941
    14  C    0.038571
    15  C    0.269343
    16  C    0.345951
    17  C    0.296654
    18  C   -0.076470
    19  C    0.046679
    20  C    0.230159
    21  C    0.410218
    22  C    0.471766
    23  C   -0.202888
    24  C    0.054729
    25  C    0.664147
 Electronic spatial extent (au):  <R**2>=          10270.4210
 Charge=              0.0000 electrons
 Dipole moment (field-independent basis, Debye):
    X=              4.4395    Y=              4.1479    Z=             -0.4580  Tot=              6.0929
 Quadrupole moment (field-independent basis, Debye-Ang):
   XX=           -144.3125   YY=           -145.2540   ZZ=           -145.8753
   XY=             -8.6903   XZ=             -5.1973   YZ=             -5.1892
 Traceless Quadrupole moment (field-independent basis, Debye-Ang):
   XX=              0.8348   YY=             -0.1068   ZZ=             -0.7280
   XY=             -8.6903   XZ=             -5.1973   YZ=             -5.1892
 Octapole moment (field-independent basis, Debye-Ang**2):
  XXX=             45.1284  YYY=             46.7764  ZZZ=             -1.1875  XYY=             11.5744
  XXY=            -45.4254  XXZ=            -35.9711  XZZ=             -7.9641  YZZ=             -2.7062
  YYZ=              3.1597  XYZ=            -10.4695
 Hexadecapole moment (field-independent basis, Debye-Ang**3):
 XXXX=          -9265.2794 YYYY=          -2434.3548 ZZZZ=           -589.8284 XXXY=            320.4612
 XXXZ=           -199.1461 YYYX=            -91.9880 YYYZ=             13.0140 ZZZX=            -31.1321
 ZZZY=             13.8568 XXYY=          -2182.0433 XXZZ=          -1783.2549 YYZZ=           -510.2375
 XXYZ=           -140.8337 YYXZ=            -30.2983 ZZXY=              5.9917
 N-N= 2.287062124462D+03 E-N=-7.475138504336D+03  KE= 1.231773811861D+03
 1\1\GINC-NODE043\FOpt\RB3LYP\3-21G\C17H19F2N3O3\SUPERCOMPUTO1\18-Aug-2
 020\0\\# opt b3lyp/3-21g geom=connectivity\\Title Card Required\\0,1\F
 ,11.9517870063,-12.6500724736,-11.3458203304\F,12.5293902456,-7.993168
 889,-10.43686765\O,7.6979971131,-8.3576799085,-11.3854982584\O,5.25802
 39648,-9.4269675013,-11.982845699\O,5.1435815837,-11.6696978262,-12.39
 11204678\N,13.6362474499,-10.5351300494,-10.5965618791\N,15.9452374518
 ,-11.6734892064,-11.9233444684\N,9.1425454213,-12.2315648528,-11.77395
 74125\C,15.3951111375,-10.3526986885,-12.3352006685\C,14.6749647221,-9
 .6366507456,-11.1661289344\C,14.2025982174,-11.8138957171,-10.10753573
 87\C,14.9338773488,-12.5370398287,-11.2628960551\C,12.2907206062,-10.3
 393859075,-10.8614225063\C,16.5299865006,-9.4870244263,-12.9003753552\
 C,11.4065653504,-11.3711239827,-11.2112261686\C,10.0300722596,-11.1926
 980788,-11.4266442254\C,11.7092382654,-9.0486907751,-10.7675042254\C,9
 .5178418813,-9.8841902666,-11.3118189332\C,10.3805892102,-8.8306109887
 ,-10.9950785989\C,9.5499450747,-13.669025727,-11.925935871\C,8.0822993
 587,-9.5371723434,-11.5076092898\C,7.8281359118,-11.9334279448,-11.955
 4104809\C,7.2636912355,-10.6942242038,-11.8418647274\C,9.7135827114,-1
 4.3699985086,-10.5674973377\C,5.816872877,-10.673302671,-12.0984293653
 \H,14.6504897208,-10.5484134282,-13.1168885281\H,15.4094399757,-9.4129
 53155,-10.3789939749\H,14.2142885275,-8.7052919711,-11.4859859741\H,13
 .4125580917,-12.4320266524,-9.6865647104\H,14.9228139096,-11.566802141
 7,-9.3152403665\H,15.4294188774,-13.4438790316,-10.8999595142\H,14.178
 1952001,-12.8166582746,-12.00141059\H,16.7617095151,-11.5369395962,-11
 .3124296967\H,17.046261793,-10.0359450347,-13.6927461695\H,16.14120479
 46,-8.5470612728,-13.3058323021\H,17.2554379483,-9.2486638156,-12.1117
 150047\H,9.9477024178,-7.8430414366,-10.9089501307\H,8.7542924429,-14.
 1419323277,-12.5053824017\H,10.472724647,-13.709983813,-12.4981384823\
 H,7.1752376823,-12.7569824066,-12.2196552355\H,10.560454866,-13.938136
 9212,-10.0331675404\H,8.8049387932,-14.2648195646,-9.9679028828\H,9.91
 03344481,-15.4357536478,-10.7274366062\H,4.283593444,-9.5205839972,-12
 .1736052416\\Version=ES64L-G09RevD.01\State=1-A\HF=-1242.0370129\RMSD=
 6.374e-09\RMSF=1.534e-05\Dipole=1.7587713,-1.6100192,0.2466318\Quadrup
 ole=0.1357342,0.1091236,-0.2448577,6.6045921,3.9612953,-3.541924\PG=C0
 1 [X(C17H19F2N3O3)]\\@


 SCIENCE IS A VERY HUMAN FORM OF KNOWLEDGE.
 WE ARE ALWAYS AT THE BRINK OF THE KNOWN,
 WE ALWAYS FEEL FORWARD FOR WHAT IS HOPED.
 EVERY JUDGEMENT IN SCIENCE STANDS ON THE EDGE OF ERROR, AND IS PERSONAL.
 SCIENCE IS A TRIBUTE TO WHAT WE CAN KNOW ALTHOUGH WE ARE FALLIBLE.

                     -- J. BRONOWSKI
 Job cpu time:       0 days  1 hours 50 minutes 24.6 seconds.
 File lengths (MBytes):  RWF=     46 Int=      0 D2E=      0 Chk=      7 Scr=      1
 Normal termination of Gaussian 09 at Tue Aug 18 09:51:20 2020.
