 Entering Gaussian System, Link 0=g09
 Input=furazolidona.gjf
 Output=furazolidona.log
 Initial command:
 /usr/local/cluster_programs/g09/l1.exe "/tmp/scratch/63913.prometeo/Gau-2246.inp" -scrdir="/tmp/scratch/63913.prometeo/"
 Entering Link 1 = /usr/local/cluster_programs/g09/l1.exe PID=      2247.
  
 Copyright (c) 1988,1990,1992,1993,1995,1998,2003,2009,2013,
            Gaussian, Inc.  All Rights Reserved.
  
 This is part of the Gaussian(R) 09 program.  It is based on
 the Gaussian(R) 03 system (copyright 2003, Gaussian, Inc.),
 the Gaussian(R) 98 system (copyright 1998, Gaussian, Inc.),
 the Gaussian(R) 94 system (copyright 1995, Gaussian, Inc.),
 the Gaussian 92(TM) system (copyright 1992, Gaussian, Inc.),
 the Gaussian 90(TM) system (copyright 1990, Gaussian, Inc.),
 the Gaussian 88(TM) system (copyright 1988, Gaussian, Inc.),
 the Gaussian 86(TM) system (copyright 1986, Carnegie Mellon
 University), and the Gaussian 82(TM) system (copyright 1983,
 Carnegie Mellon University). Gaussian is a federally registered
 trademark of Gaussian, Inc.
  
 This software contains proprietary and confidential information,
 including trade secrets, belonging to Gaussian, Inc.
  
 This software is provided under written license and may be
 used, copied, transmitted, or stored only in accord with that
 written license.
  
 The following legend is applicable only to US Government
 contracts under FAR:
  
                    RESTRICTED RIGHTS LEGEND
  
 Use, reproduction and disclosure by the US Government is
 subject to restrictions as set forth in subparagraphs (a)
 and (c) of the Commercial Computer Software - Restricted
 Rights clause in FAR 52.227-19.
  
 Gaussian, Inc.
 340 Quinnipiac St., Bldg. 40, Wallingford CT 06492
  
  
 ---------------------------------------------------------------
 Warning -- This program may not be used in any manner that
 competes with the business of Gaussian, Inc. or will provide
 assistance to any competitor of Gaussian, Inc.  The licensee
 of this program is prohibited from giving any competitor of
 Gaussian, Inc. access to this program.  By using this program,
 the user acknowledges that Gaussian, Inc. is engaged in the
 business of creating and licensing software in the field of
 computational chemistry and represents and warrants to the
 licensee that it is not a competitor of Gaussian, Inc. and that
 it will not use this program in any manner prohibited above.
 ---------------------------------------------------------------
  

 Cite this work as:
 Gaussian 09, Revision D.01,
 M. J. Frisch, G. W. Trucks, H. B. Schlegel, G. E. Scuseria, 
 M. A. Robb, J. R. Cheeseman, G. Scalmani, V. Barone, B. Mennucci, 
 G. A. Petersson, H. Nakatsuji, M. Caricato, X. Li, H. P. Hratchian, 
 A. F. Izmaylov, J. Bloino, G. Zheng, J. L. Sonnenberg, M. Hada, 
 M. Ehara, K. Toyota, R. Fukuda, J. Hasegawa, M. Ishida, T. Nakajima, 
 Y. Honda, O. Kitao, H. Nakai, T. Vreven, J. A. Montgomery, Jr., 
 J. E. Peralta, F. Ogliaro, M. Bearpark, J. J. Heyd, E. Brothers, 
 K. N. Kudin, V. N. Staroverov, T. Keith, R. Kobayashi, J. Normand, 
 K. Raghavachari, A. Rendell, J. C. Burant, S. S. Iyengar, J. Tomasi, 
 M. Cossi, N. Rega, J. M. Millam, M. Klene, J. E. Knox, J. B. Cross, 
 V. Bakken, C. Adamo, J. Jaramillo, R. Gomperts, R. E. Stratmann, 
 O. Yazyev, A. J. Austin, R. Cammi, C. Pomelli, J. W. Ochterski, 
 R. L. Martin, K. Morokuma, V. G. Zakrzewski, G. A. Voth, 
 P. Salvador, J. J. Dannenberg, S. Dapprich, A. D. Daniels, 
 O. Farkas, J. B. Foresman, J. V. Ortiz, J. Cioslowski, 
 and D. J. Fox, Gaussian, Inc., Wallingford CT, 2013.
 
 ******************************************
 Gaussian 09:  ES64L-G09RevD.01 24-Apr-2013
                 6-Jul-2020 
 ******************************************
 %nprocshared=20
 Will use up to   20 processors via shared memory.
 -----------------------------------
 # opt b3lyp/3-21g geom=connectivity
 -----------------------------------
 1/14=-1,18=20,19=15,26=3,38=1,57=2/1,3;
 2/9=110,12=2,17=6,18=5,40=1/2;
 3/5=5,11=2,16=1,25=1,30=1,71=1,74=-5/1,2,3;
 4//1;
 5/5=2,38=5/2;
 6/7=2,8=2,9=2,10=2,28=1/1;
 7//1,2,3,16;
 1/14=-1,18=20,19=15,26=3/3(2);
 2/9=110/2;
 99//99;
 2/9=110/2;
 3/5=5,11=2,16=1,25=1,30=1,71=1,74=-5/1,2,3;
 4/5=5,16=3,69=1/1;
 5/5=2,38=5/2;
 7//1,2,3,16;
 1/14=-1,18=20,19=15,26=3/3(-5);
 2/9=110/2;
 6/7=2,8=2,9=2,10=2,19=2,28=1/1;
 99/9=1/99;
 -------------------
 Title Card Required
 -------------------
 Symbolic Z-matrix:
 Charge =  0 Multiplicity = 1
 O(PDBName=O1,ResName=MOL,ResNum=1) 0     12.005    3.539    -7.464    L 
 O(PDBName=O2,ResName=MOL,ResNum=1) 0     5.479     4.645    -6.538    L 
 O(PDBName=O3,ResName=MOL,ResNum=1) 0     9.993     2.542    -7.011    L 
 O(PDBName=O4,ResName=MOL,ResNum=1) 0     2.42      5.88     -5.265    L 
 O(PDBName=O5,ResName=MOL,ResNum=1) 0     2.851     3.953    -6.309    L 
 N(PDBName=N6,ResName=MOL,ResNum=1) 0     10.197    4.876    -7.249    L 
 N(PDBName=N7,ResName=MOL,ResNum=1) 0     8.952     5.381    -7.006    L 
 N(PDBName=N8,ResName=MOL,ResNum=1) 0     3.198     5.08     -5.861    L 
 C(PDBName=C9,ResName=MOL,ResNum=1) 0     11.264    5.828    -7.539    L 
 C(PDBName=C10,ResName=MOL,ResNum=1) 0     12.49     4.902    -7.681    L 
 C(PDBName=C11,ResName=MOL,ResNum=1) 0     10.649    3.548    -7.227    L 
 C(PDBName=C12,ResName=MOL,ResNum=1) 0     6.682     5.323    -6.501    L 
 C(PDBName=C13,ResName=MOL,ResNum=1) 0     7.883     4.632    -6.9      L 
 C(PDBName=C14,ResName=MOL,ResNum=1) 0     6.491     6.582    -5.961    L 
 C(PDBName=C15,ResName=MOL,ResNum=1) 0     4.551     5.507    -6.012    L 
 C(PDBName=C16,ResName=MOL,ResNum=1) 0     5.129     6.696    -5.635    L 
 H(PDBName=H17,ResName=MOL,ResNum=1) 0     11.053    6.369    -8.468    L 
 H(PDBName=H18,ResName=MOL,ResNum=1) 0     11.366    6.562    -6.728    L 
 H(PDBName=H19,ResName=MOL,ResNum=1) 0     13.259    5.123    -6.934    L 
 H(PDBName=H20,ResName=MOL,ResNum=1) 0     12.935    4.93     -8.682    L 
 H(PDBName=H21,ResName=MOL,ResNum=1) 0     7.859     3.543    -7.038    L 
 H(PDBName=H22,ResName=MOL,ResNum=1) 0     7.699     7.308    -5.813    L 
 H(PDBName=H23,ResName=MOL,ResNum=1) 0     4.62      7.942    -5.156    L 
 
 Center=      8.21847826      5.24743478     -6.73817391
 Residue   1 PDB Number     1_0 MOL charge    0.00000000 layers R        AvRTP=      0.00000000     26.56505118    114.09484255

 GradGradGradGradGradGradGradGradGradGradGradGradGradGradGradGradGradGrad
 Berny optimization.
 Initialization pass.
                           ----------------------------
                           !    Initial Parameters    !
                           ! (Angstroms and Degrees)  !
 --------------------------                            --------------------------
 ! Name  Definition              Value          Derivative Info.                !
 --------------------------------------------------------------------------------
 ! R1    R(1,10)                 1.4629         estimate D2E/DX2                !
 ! R2    R(1,11)                 1.3766         estimate D2E/DX2                !
 ! R3    R(2,12)                 1.3814         estimate D2E/DX2                !
 ! R4    R(2,15)                 1.3715         estimate D2E/DX2                !
 ! R5    R(3,11)                 1.2203         estimate D2E/DX2                !
 ! R6    R(4,8)                  1.2651         estimate D2E/DX2                !
 ! R7    R(5,8)                  1.2614         estimate D2E/DX2                !
 ! R8    R(6,7)                  1.3653         estimate D2E/DX2                !
 ! R9    R(6,9)                  1.4591         estimate D2E/DX2                !
 ! R10   R(6,11)                 1.403          estimate D2E/DX2                !
 ! R11   R(7,13)                 1.3096         estimate D2E/DX2                !
 ! R12   R(8,15)                 1.4268         estimate D2E/DX2                !
 ! R13   R(9,10)                 1.543          estimate D2E/DX2                !
 ! R14   R(9,17)                 1.0956         estimate D2E/DX2                !
 ! R15   R(9,18)                 1.0986         estimate D2E/DX2                !
 ! R16   R(10,19)                1.0946         estimate D2E/DX2                !
 ! R17   R(10,20)                1.0958         estimate D2E/DX2                !
 ! R18   R(12,13)                1.4419         estimate D2E/DX2                !
 ! R19   R(12,14)                1.3832         estimate D2E/DX2                !
 ! R20   R(13,21)                1.098          estimate D2E/DX2                !
 ! R21   R(14,16)                1.4051         estimate D2E/DX2                !
 ! R22   R(14,22)                1.4171         estimate D2E/DX2                !
 ! R23   R(15,16)                1.3747         estimate D2E/DX2                !
 ! R24   R(16,23)                1.4286         estimate D2E/DX2                !
 ! A1    A(10,1,11)            110.2442         estimate D2E/DX2                !
 ! A2    A(12,2,15)            105.6945         estimate D2E/DX2                !
 ! A3    A(7,6,9)              117.4441         estimate D2E/DX2                !
 ! A4    A(7,6,11)             129.8735         estimate D2E/DX2                !
 ! A5    A(9,6,11)             112.6508         estimate D2E/DX2                !
 ! A6    A(6,7,13)             123.1762         estimate D2E/DX2                !
 ! A7    A(4,8,5)              124.2709         estimate D2E/DX2                !
 ! A8    A(4,8,15)             116.3448         estimate D2E/DX2                !
 ! A9    A(5,8,15)             119.383          estimate D2E/DX2                !
 ! A10   A(6,9,10)             101.9922         estimate D2E/DX2                !
 ! A11   A(6,9,17)             110.4809         estimate D2E/DX2                !
 ! A12   A(6,9,18)             110.9227         estimate D2E/DX2                !
 ! A13   A(10,9,17)            111.7991         estimate D2E/DX2                !
 ! A14   A(10,9,18)            113.2749         estimate D2E/DX2                !
 ! A15   A(17,9,18)            108.2969         estimate D2E/DX2                !
 ! A16   A(1,10,9)             106.3845         estimate D2E/DX2                !
 ! A17   A(1,10,19)            108.6502         estimate D2E/DX2                !
 ! A18   A(1,10,20)            107.094          estimate D2E/DX2                !
 ! A19   A(9,10,19)            111.9772         estimate D2E/DX2                !
 ! A20   A(9,10,20)            113.0419         estimate D2E/DX2                !
 ! A21   A(19,10,20)           109.4468         estimate D2E/DX2                !
 ! A22   A(1,11,3)             123.6858         estimate D2E/DX2                !
 ! A23   A(1,11,6)             108.7138         estimate D2E/DX2                !
 ! A24   A(3,11,6)             127.5846         estimate D2E/DX2                !
 ! A25   A(2,12,13)            118.8645         estimate D2E/DX2                !
 ! A26   A(2,12,14)            109.691          estimate D2E/DX2                !
 ! A27   A(13,12,14)           131.2432         estimate D2E/DX2                !
 ! A28   A(7,13,12)            115.3547         estimate D2E/DX2                !
 ! A29   A(7,13,21)            125.0951         estimate D2E/DX2                !
 ! A30   A(12,13,21)           119.4646         estimate D2E/DX2                !
 ! A31   A(12,14,16)           107.3544         estimate D2E/DX2                !
 ! A32   A(12,14,22)           112.9157         estimate D2E/DX2                !
 ! A33   A(16,14,22)           139.507          estimate D2E/DX2                !
 ! A34   A(2,15,8)             119.6133         estimate D2E/DX2                !
 ! A35   A(2,15,16)            111.3639         estimate D2E/DX2                !
 ! A36   A(8,15,16)            128.9402         estimate D2E/DX2                !
 ! A37   A(14,16,15)           105.8874         estimate D2E/DX2                !
 ! A38   A(14,16,23)           119.5973         estimate D2E/DX2                !
 ! A39   A(15,16,23)           134.1439         estimate D2E/DX2                !
 ! D1    D(11,1,10,9)            0.6284         estimate D2E/DX2                !
 ! D2    D(11,1,10,19)         121.3545         estimate D2E/DX2                !
 ! D3    D(11,1,10,20)        -120.5193         estimate D2E/DX2                !
 ! D4    D(10,1,11,3)         -179.8033         estimate D2E/DX2                !
 ! D5    D(10,1,11,6)           -1.1518         estimate D2E/DX2                !
 ! D6    D(15,2,12,13)         175.3633         estimate D2E/DX2                !
 ! D7    D(15,2,12,14)          -0.0528         estimate D2E/DX2                !
 ! D8    D(12,2,15,8)         -177.5406         estimate D2E/DX2                !
 ! D9    D(12,2,15,16)          -0.5556         estimate D2E/DX2                !
 ! D10   D(9,6,7,13)           171.1741         estimate D2E/DX2                !
 ! D11   D(11,6,7,13)          -11.04           estimate D2E/DX2                !
 ! D12   D(7,6,9,10)           177.3341         estimate D2E/DX2                !
 ! D13   D(7,6,9,17)           -63.6801         estimate D2E/DX2                !
 ! D14   D(7,6,9,18)            56.4244         estimate D2E/DX2                !
 ! D15   D(11,6,9,10)           -0.8249         estimate D2E/DX2                !
 ! D16   D(11,6,9,17)          118.1609         estimate D2E/DX2                !
 ! D17   D(11,6,9,18)         -121.7346         estimate D2E/DX2                !
 ! D18   D(7,6,11,1)          -176.6002         estimate D2E/DX2                !
 ! D19   D(7,6,11,3)             1.9838         estimate D2E/DX2                !
 ! D20   D(9,6,11,1)             1.2708         estimate D2E/DX2                !
 ! D21   D(9,6,11,3)           179.8547         estimate D2E/DX2                !
 ! D22   D(6,7,13,12)          173.6321         estimate D2E/DX2                !
 ! D23   D(6,7,13,21)           -2.9703         estimate D2E/DX2                !
 ! D24   D(4,8,15,2)           174.1067         estimate D2E/DX2                !
 ! D25   D(4,8,15,16)           -2.2826         estimate D2E/DX2                !
 ! D26   D(5,8,15,2)            -5.4927         estimate D2E/DX2                !
 ! D27   D(5,8,15,16)          178.118          estimate D2E/DX2                !
 ! D28   D(6,9,10,1)             0.1152         estimate D2E/DX2                !
 ! D29   D(6,9,10,19)         -118.4462         estimate D2E/DX2                !
 ! D30   D(6,9,10,20)          117.3736         estimate D2E/DX2                !
 ! D31   D(17,9,10,1)         -117.9324         estimate D2E/DX2                !
 ! D32   D(17,9,10,19)         123.5061         estimate D2E/DX2                !
 ! D33   D(17,9,10,20)          -0.6741         estimate D2E/DX2                !
 ! D34   D(18,9,10,1)          119.3762         estimate D2E/DX2                !
 ! D35   D(18,9,10,19)           0.8147         estimate D2E/DX2                !
 ! D36   D(18,9,10,20)        -123.3655         estimate D2E/DX2                !
 ! D37   D(2,12,13,7)          171.4932         estimate D2E/DX2                !
 ! D38   D(2,12,13,21)         -11.6994         estimate D2E/DX2                !
 ! D39   D(14,12,13,7)         -14.25           estimate D2E/DX2                !
 ! D40   D(14,12,13,21)        162.5574         estimate D2E/DX2                !
 ! D41   D(2,12,14,16)           0.615          estimate D2E/DX2                !
 ! D42   D(2,12,14,22)         176.2747         estimate D2E/DX2                !
 ! D43   D(13,12,14,16)       -174.0441         estimate D2E/DX2                !
 ! D44   D(13,12,14,22)          1.6156         estimate D2E/DX2                !
 ! D45   D(12,14,16,15)         -0.9216         estimate D2E/DX2                !
 ! D46   D(12,14,16,23)       -174.8846         estimate D2E/DX2                !
 ! D47   D(22,14,16,15)       -174.7591         estimate D2E/DX2                !
 ! D48   D(22,14,16,23)         11.2779         estimate D2E/DX2                !
 ! D49   D(2,15,16,14)           0.927          estimate D2E/DX2                !
 ! D50   D(2,15,16,23)         173.6055         estimate D2E/DX2                !
 ! D51   D(8,15,16,14)         177.5566         estimate D2E/DX2                !
 ! D52   D(8,15,16,23)          -9.765          estimate D2E/DX2                !
 --------------------------------------------------------------------------------
 Trust Radius=3.00D-01 FncErr=1.00D-07 GrdErr=1.00D-06
 Number of steps in this run=    125 maximum allowed number of steps=    138.
 GradGradGradGradGradGradGradGradGradGradGradGradGradGradGradGradGradGrad

                          Input orientation:                          
 ---------------------------------------------------------------------
 Center     Atomic      Atomic             Coordinates (Angstroms)
 Number     Number       Type             X           Y           Z
 ---------------------------------------------------------------------
      1          8           0       12.005000    3.539000   -7.464000
      2          8           0        5.479000    4.645000   -6.538000
      3          8           0        9.993000    2.542000   -7.011000
      4          8           0        2.420000    5.880000   -5.265000
      5          8           0        2.851000    3.953000   -6.309000
      6          7           0       10.197000    4.876000   -7.249000
      7          7           0        8.952000    5.381000   -7.006000
      8          7           0        3.198000    5.080000   -5.861000
      9          6           0       11.264000    5.828000   -7.539000
     10          6           0       12.490000    4.902000   -7.681000
     11          6           0       10.649000    3.548000   -7.227000
     12          6           0        6.682000    5.323000   -6.501000
     13          6           0        7.883000    4.632000   -6.900000
     14          6           0        6.491000    6.582000   -5.961000
     15          6           0        4.551000    5.507000   -6.012000
     16          6           0        5.129000    6.696000   -5.635000
     17          1           0       11.053000    6.369000   -8.468000
     18          1           0       11.366000    6.562000   -6.728000
     19          1           0       13.259000    5.123000   -6.934000
     20          1           0       12.935000    4.930000   -8.682000
     21          1           0        7.859000    3.543000   -7.038000
     22          1           0        7.699000    7.308000   -5.813000
     23          1           0        4.620000    7.942000   -5.156000
 ---------------------------------------------------------------------
                    Distance matrix (angstroms):
                    1          2          3          4          5
     1  O    0.000000
     2  O    6.683516   0.000000
     3  O    2.290712   5.002253   0.000000
     4  O   10.108813   3.535991   8.458197   0.000000
     5  O    9.235861   2.727213   7.313815   2.233613   0.000000
     6  N    2.258906   4.776862   2.354956   8.088634   7.463193
     7  N    3.594932   3.580845   3.023843   6.778429   6.304538
     8  N    9.083366   2.418784   7.344111   1.265109   1.261444
     9  C    2.407120   5.988966   3.562586   9.131819   8.706727
    10  C    1.462902   7.108208   3.500501  10.401848   9.782296
    11  C    1.376585   5.329825   1.220257   8.775199   7.862287
    12  C    5.695995   1.381399   4.353939   4.472425   4.073122
    13  C    4.301584   2.431137   2.971956   5.837388   5.111883
    14  C    6.474801   2.260319   5.448679   4.189303   4.503592
    15  C    7.844963   1.371461   6.277308   2.288733   2.322310
    16  C    7.784039   2.268151   6.542751   2.853320   3.628720
    17  H    3.150114   6.145450   4.229938   9.221010   8.818795
    18  H    3.176247   6.194171   4.257419   9.090457   8.915586
    19  H    2.088653   7.804723   4.163442  10.992840  10.492187
    20  H    2.069615   7.763369   4.141274  11.097009  10.405418
    21  H    4.167830   2.669982   2.357262   6.179629   5.077362
    22  H    5.955904   3.541976   5.423320   5.496119   5.916515
    23  H    8.902331   3.676685   7.840290   3.017238   4.513412
                    6          7          8          9         10
     6  N    0.000000
     7  N    1.365320   0.000000
     8  N    7.138218   5.874533   0.000000
     9  C    1.459073   2.414382   8.272578   0.000000
    10  C    2.333484   3.633526   9.470235   1.542957   0.000000
    11  C    1.402987   2.507696   7.728543   2.382009   2.329960
    12  C    3.621400   2.326218   3.550620   4.725166   5.941591
    13  C    2.352856   1.309579   4.819694   3.642787   4.680525
    14  C    4.278296   2.931032   3.620753   5.083319   6.462879
    15  C    5.814262   4.513614   1.426793   6.891962   8.135067
    16  C    5.621567   4.268981   2.528101   6.482042   7.847858
    17  H    2.108968   2.743682   8.376097   1.095556   2.199188
    18  H    2.116742   2.701748   8.346510   1.098581   2.219726
    19  H    3.088054   4.315321  10.118147   2.200699   1.094628
    20  H    3.090801   4.344729  10.138526   2.214745   1.095815
    21  H    2.699566   2.138672   5.047041   4.131132   4.868931
    22  H    3.770507   2.589708   5.022478   4.228321   5.677318
    23  H    6.699547   5.361664   3.272637   7.368203   8.806482
                   11         12         13         14         15
    11  C    0.000000
    12  C    4.406222   0.000000
    13  C    2.988769   1.441903   0.000000
    14  C    5.300649   1.383171   2.573302   0.000000
    15  C    6.519165   2.194114   3.557582   2.218519   0.000000
    16  C    6.550936   2.246529   3.666720   1.405104   1.374749
    17  H    3.108269   4.906001   3.940139   5.209824   7.003641
    18  H    3.138039   4.850413   3.985696   4.935009   6.933246
    19  H    3.062446   6.594272   5.398482   6.991512   8.765090
    20  H    3.041833   6.634095   5.365355   7.187356   8.817782
    21  H    2.796399   2.200477   1.097971   3.502410   3.981562
    22  H    4.983924   2.334065   2.894201   1.417125   3.632232
    23  H    7.742423   3.594444   4.964353   2.449136   2.582000
                   16         17         18         19         20
    16  C    0.000000
    17  H    6.574693   0.000000
    18  H    6.333465   1.778431   0.000000
    19  H    8.382042   2.961774   2.386756   0.000000
    20  H    8.563679   2.378748   2.990535   1.788220   0.000000
    21  H    4.400309   4.498090   4.637835   5.627363   5.512919
    22  H    2.647853   4.379505   3.852354   6.078196   6.426643
    23  H    1.428649   7.404537   7.062868   9.259609   9.520717
                   21         22         23
    21  H    0.000000
    22  H    3.962506   0.000000
    23  H    5.777910   3.211518   0.000000
 Stoichiometry    C8H7N3O5
 Framework group  C1[X(C8H7N3O5)]
 Deg. of freedom    63
 Full point group                 C1      NOp   1
 Largest Abelian subgroup         C1      NOp   1
 Largest concise Abelian subgroup C1      NOp   1
                         Standard orientation:                         
 ---------------------------------------------------------------------
 Center     Atomic      Atomic             Coordinates (Angstroms)
 Number     Number       Type             X           Y           Z
 ---------------------------------------------------------------------
      1          8           0        4.647336    0.796164   -0.205356
      2          8           0       -2.018334    0.578295    0.231407
      3          8           0        2.725521    2.023342   -0.424498
      4          8           0       -5.398864   -0.324851   -0.278079
      5          8           0       -4.532370    1.624088    0.385133
      6          7           0        2.680609   -0.271328    0.103034
      7          7           0        1.359169   -0.609282    0.163722
      8          7           0       -4.424456    0.413571    0.047130
      9          6           0        3.656988   -1.331965    0.328034
     10          6           0        4.992280   -0.589508    0.112463
     11          6           0        3.280934    0.962534   -0.189483
     12          6           0       -0.940679   -0.271594    0.074532
     13          6           0        0.392170    0.273688    0.147084
     14          6           0       -1.390476   -1.541973   -0.236883
     15          6           0       -3.132351   -0.190454    0.010284
     16          6           0       -2.793483   -1.488141   -0.291561
     17          1           0        3.569299   -1.723779    1.347365
     18          1           0        3.503468   -2.162104   -0.374946
     19          1           0        5.563730   -1.008209   -0.722010
     20          1           0        5.620459   -0.567311    1.010076
     21          1           0        0.531853    1.362610    0.130427
     22          1           0       -0.336012   -2.452630   -0.495834
     23          1           0       -3.538652   -2.691132   -0.487962
 ---------------------------------------------------------------------
 Rotational constants (GHZ):      1.8877570      0.1887535      0.1735375
 Standard basis: 3-21G (6D, 7F)
 There are   158 symmetry adapted cartesian basis functions of A   symmetry.
 There are   158 symmetry adapted basis functions of A   symmetry.
   158 basis functions,   261 primitive gaussians,   158 cartesian basis functions
    58 alpha electrons       58 beta electrons
       nuclear repulsion energy      1027.6479943722 Hartrees.
 NAtoms=   23 NActive=   23 NUniq=   23 SFac= 1.00D+00 NAtFMM=   60 NAOKFM=F Big=F
 Integral buffers will be    131072 words long.
 Raffenetti 2 integral format.
 Two-electron integral symmetry is turned on.
 One-electron integrals computed using PRISM.
 PrsmSu:  requested number of processors reduced to:   9 ShMem   1 Linda.
 NBasis=   158 RedAO= T EigKep=  2.94D-03  NBF=   158
 NBsUse=   158 1.00D-06 EigRej= -1.00D+00 NBFU=   158
 ExpMin= 1.83D-01 ExpMax= 3.22D+02 ExpMxC= 3.22D+02 IAcc=1 IRadAn=         1 AccDes= 0.00D+00
 Harris functional with IExCor=  402 and IRadAn=       1 diagonalized for initial guess.
 HarFok:  IExCor=  402 AccDes= 0.00D+00 IRadAn=         1 IDoV= 1 UseB2=F ITyADJ=14
 ICtDFT=  3500011 ScaDFX=  1.000000  1.000000  1.000000  1.000000
 FoFCou: FMM=F IPFlag=           0 FMFlag=      100000 FMFlg1=           0
         NFxFlg=           0 DoJE=T BraDBF=F KetDBF=T FulRan=T
         wScrn=  0.000000 ICntrl=     500 IOpCl=  0 I1Cent=   200000004 NGrid=           0
         NMat0=    1 NMatS0=      1 NMatT0=    0 NMatD0=    1 NMtDS0=    0 NMtDT0=    0
 Petite list used in FoFCou.
 Requested convergence on RMS density matrix=1.00D-08 within 128 cycles.
 Requested convergence on MAX density matrix=1.00D-06.
 Requested convergence on             energy=1.00D-06.
 No special actions if energy rises.
 Integral accuracy reduced to 1.0D-05 until final iterations.
 Initial convergence to 1.0D-05 achieved.  Increase integral accuracy.
 SCF Done:  E(RB3LYP) =  -844.449534157     A.U. after   17 cycles
            NFock= 17  Conv=0.72D-08     -V/T= 2.0085

 **********************************************************************

            Population analysis using the SCF density.

 **********************************************************************

 Orbital symmetries:
       Occupied  (A) (A) (A) (A) (A) (A) (A) (A) (A) (A) (A) (A)
                 (A) (A) (A) (A) (A) (A) (A) (A) (A) (A) (A) (A)
                 (A) (A) (A) (A) (A) (A) (A) (A) (A) (A) (A) (A)
                 (A) (A) (A) (A) (A) (A) (A) (A) (A) (A) (A) (A)
                 (A) (A) (A) (A) (A) (A) (A) (A) (A) (A)
       Virtual   (A) (A) (A) (A) (A) (A) (A) (A) (A) (A) (A) (A)
                 (A) (A) (A) (A) (A) (A) (A) (A) (A) (A) (A) (A)
                 (A) (A) (A) (A) (A) (A) (A) (A) (A) (A) (A) (A)
                 (A) (A) (A) (A) (A) (A) (A) (A) (A) (A) (A) (A)
                 (A) (A) (A) (A) (A) (A) (A) (A) (A) (A) (A) (A)
                 (A) (A) (A) (A) (A) (A) (A) (A) (A) (A) (A) (A)
                 (A) (A) (A) (A) (A) (A) (A) (A) (A) (A) (A) (A)
                 (A) (A) (A) (A) (A) (A) (A) (A) (A) (A) (A) (A)
                 (A) (A) (A) (A)
 The electronic state is 1-A.
 Alpha  occ. eigenvalues --  -19.16187 -19.10995 -19.06031 -19.05819 -19.04796
 Alpha  occ. eigenvalues --  -14.48429 -14.36261 -14.33026 -10.30751 -10.25868
 Alpha  occ. eigenvalues --  -10.22961 -10.22551 -10.20921 -10.20360 -10.20328
 Alpha  occ. eigenvalues --  -10.18606  -1.21676  -1.16863  -1.14695  -1.06147
 Alpha  occ. eigenvalues --   -1.04791  -1.04098  -0.90748  -0.85701  -0.83607
 Alpha  occ. eigenvalues --   -0.79860  -0.75409  -0.69219  -0.68154  -0.63993
 Alpha  occ. eigenvalues --   -0.58819  -0.56646  -0.55325  -0.54940  -0.53904
 Alpha  occ. eigenvalues --   -0.53548  -0.52617  -0.50308  -0.48151  -0.47847
 Alpha  occ. eigenvalues --   -0.46528  -0.45832  -0.45170  -0.43726  -0.42587
 Alpha  occ. eigenvalues --   -0.40257  -0.39181  -0.38847  -0.38165  -0.32706
 Alpha  occ. eigenvalues --   -0.32091  -0.30787  -0.30268  -0.29044  -0.28240
 Alpha  occ. eigenvalues --   -0.27964  -0.27241  -0.23727
 Alpha virt. eigenvalues --   -0.09972  -0.05287  -0.00221   0.02279   0.04289
 Alpha virt. eigenvalues --    0.04347   0.05707   0.07718   0.09499   0.09909
 Alpha virt. eigenvalues --    0.10995   0.13784   0.14483   0.14969   0.17751
 Alpha virt. eigenvalues --    0.19495   0.20737   0.20912   0.22542   0.25426
 Alpha virt. eigenvalues --    0.25952   0.28773   0.31805   0.34491   0.36898
 Alpha virt. eigenvalues --    0.41732   0.43727   0.46654   0.50930   0.61197
 Alpha virt. eigenvalues --    0.64401   0.65920   0.66046   0.68347   0.69223
 Alpha virt. eigenvalues --    0.69814   0.71557   0.72610   0.73235   0.73839
 Alpha virt. eigenvalues --    0.74416   0.75713   0.75952   0.76549   0.79143
 Alpha virt. eigenvalues --    0.79952   0.82382   0.84075   0.85295   0.87267
 Alpha virt. eigenvalues --    0.91363   0.94113   0.96961   0.98453   0.98888
 Alpha virt. eigenvalues --    1.02565   1.03541   1.07125   1.08622   1.14024
 Alpha virt. eigenvalues --    1.16589   1.18446   1.21607   1.23461   1.28442
 Alpha virt. eigenvalues --    1.31918   1.35641   1.38444   1.42552   1.44365
 Alpha virt. eigenvalues --    1.47763   1.48611   1.48763   1.51776   1.55334
 Alpha virt. eigenvalues --    1.55456   1.56215   1.57669   1.59213   1.61972
 Alpha virt. eigenvalues --    1.63020   1.64925   1.65808   1.68624   1.73314
 Alpha virt. eigenvalues --    1.75907   1.80345   1.81709   1.91267   1.93434
 Alpha virt. eigenvalues --    2.13058   2.22348   2.53085   2.66289   2.74667
 Alpha virt. eigenvalues --    2.87592   2.89652   3.14533   3.29577   3.42542
          Condensed to atoms (all electrons):
               1          2          3          4          5          6
     1  O    8.278275   0.000000  -0.042057   0.000000   0.000000  -0.077897
     2  O    0.000000   8.168007   0.000000   0.000298   0.000506  -0.000002
     3  O   -0.042057   0.000000   8.038662   0.000000   0.000000  -0.062803
     4  O    0.000000   0.000298   0.000000   8.263261  -0.064476   0.000000
     5  O    0.000000   0.000506   0.000000  -0.064476   8.269503   0.000000
     6  N   -0.077897  -0.000002  -0.062803   0.000000   0.000000   7.373217
     7  N    0.000792   0.000543  -0.001779   0.000000   0.000000   0.208628
     8  N    0.000000  -0.018301   0.000000   0.190440   0.154441   0.000000
     9  C   -0.030210   0.000000   0.001023   0.000000   0.000000   0.224940
    10  C    0.225569   0.000000   0.001075   0.000000   0.000000  -0.037458
    11  C    0.200595   0.000000   0.529420   0.000000   0.000000   0.059288
    12  C    0.000000   0.260827   0.000275  -0.000047   0.000134   0.005367
    13  C    0.000020  -0.022455   0.000230   0.000000   0.000001  -0.078823
    14  C    0.000000  -0.081086   0.000000   0.000439  -0.000040  -0.000059
    15  C    0.000000   0.287104   0.000000  -0.096629  -0.068053   0.000000
    16  C    0.000000  -0.094584   0.000000   0.016342   0.002952  -0.000001
    17  H    0.001180   0.000000  -0.000007   0.000000   0.000000  -0.039221
    18  H    0.001024   0.000000  -0.000010   0.000000   0.000000  -0.038917
    19  H   -0.028545   0.000000  -0.000013   0.000000   0.000000   0.001470
    20  H   -0.030233   0.000000  -0.000014   0.000000   0.000000   0.001401
    21  H    0.000030  -0.000136   0.019521   0.000000   0.000000  -0.008068
    22  H    0.000000   0.000972   0.000000   0.000000   0.000000  -0.000165
    23  H    0.000000   0.000536   0.000000   0.000234   0.000000   0.000000
               7          8          9         10         11         12
     1  O    0.000792   0.000000  -0.030210   0.225569   0.200595   0.000000
     2  O    0.000543  -0.018301   0.000000   0.000000   0.000000   0.260827
     3  O   -0.001779   0.000000   0.001023   0.001075   0.529420   0.000275
     4  O    0.000000   0.190440   0.000000   0.000000   0.000000  -0.000047
     5  O    0.000000   0.154441   0.000000   0.000000   0.000000   0.000134
     6  N    0.208628   0.000000   0.224940  -0.037458   0.059288   0.005367
     7  N    6.836461   0.000000  -0.054467   0.003887  -0.027172  -0.097150
     8  N    0.000000   6.631173   0.000000   0.000000   0.000000  -0.001804
     9  C   -0.054467   0.000000   5.266947   0.204237  -0.091682  -0.000050
    10  C    0.003887   0.000000   0.204237   5.198445  -0.061470   0.000000
    11  C   -0.027172   0.000000  -0.091682  -0.061470   4.431597   0.000200
    12  C   -0.097150  -0.001804  -0.000050   0.000000   0.000200   5.264630
    13  C    0.455720  -0.000042   0.003397  -0.000221  -0.000807   0.281979
    14  C   -0.001865   0.005100   0.000000   0.000000   0.000001   0.324829
    15  C   -0.000070   0.031967   0.000000   0.000000   0.000000  -0.145838
    16  C    0.000270  -0.052595   0.000000   0.000000   0.000000  -0.112552
    17  H    0.001438   0.000000   0.363491  -0.035803   0.002507  -0.000014
    18  H    0.003807   0.000000   0.361039  -0.030579   0.002729  -0.000007
    19  H   -0.000032   0.000000  -0.039712   0.354729   0.001458   0.000000
    20  H   -0.000031   0.000000  -0.038333   0.357256   0.001272   0.000000
    21  H   -0.042829  -0.000001  -0.000146   0.000005   0.004859  -0.048216
    22  H    0.009363  -0.000002   0.000004   0.000000   0.000003  -0.032607
    23  H    0.000000  -0.001150   0.000000   0.000000   0.000000   0.003337
              13         14         15         16         17         18
     1  O    0.000020   0.000000   0.000000   0.000000   0.001180   0.001024
     2  O   -0.022455  -0.081086   0.287104  -0.094584   0.000000   0.000000
     3  O    0.000230   0.000000   0.000000   0.000000  -0.000007  -0.000010
     4  O    0.000000   0.000439  -0.096629   0.016342   0.000000   0.000000
     5  O    0.000001  -0.000040  -0.068053   0.002952   0.000000   0.000000
     6  N   -0.078823  -0.000059   0.000000  -0.000001  -0.039221  -0.038917
     7  N    0.455720  -0.001865  -0.000070   0.000270   0.001438   0.003807
     8  N   -0.000042   0.005100   0.031967  -0.052595   0.000000   0.000000
     9  C    0.003397   0.000000   0.000000   0.000000   0.363491   0.361039
    10  C   -0.000221   0.000000   0.000000   0.000000  -0.035803  -0.030579
    11  C   -0.000807   0.000001   0.000000   0.000000   0.002507   0.002729
    12  C    0.281979   0.324829  -0.145838  -0.112552  -0.000014  -0.000007
    13  C    5.060064  -0.063215   0.000627   0.005751   0.000229  -0.000034
    14  C   -0.063215   5.407752  -0.112556   0.346888  -0.000001  -0.000001
    15  C    0.000627  -0.112556   5.258596   0.250204   0.000000   0.000000
    16  C    0.005751   0.346888   0.250204   5.438124   0.000000   0.000000
    17  H    0.000229  -0.000001   0.000000   0.000000   0.503097  -0.035505
    18  H   -0.000034  -0.000001   0.000000   0.000000  -0.035505   0.501699
    19  H    0.000002   0.000000   0.000000   0.000000   0.002415  -0.004383
    20  H    0.000003   0.000000   0.000000   0.000000  -0.004170   0.002149
    21  H    0.320748   0.003594  -0.000072  -0.000032   0.000005   0.000006
    22  H   -0.001855   0.332627   0.002147  -0.006206  -0.000003   0.000073
    23  H   -0.000020  -0.023828  -0.012666   0.333584   0.000000   0.000000
              19         20         21         22         23
     1  O   -0.028545  -0.030233   0.000030   0.000000   0.000000
     2  O    0.000000   0.000000  -0.000136   0.000972   0.000536
     3  O   -0.000013  -0.000014   0.019521   0.000000   0.000000
     4  O    0.000000   0.000000   0.000000   0.000000   0.000234
     5  O    0.000000   0.000000   0.000000   0.000000   0.000000
     6  N    0.001470   0.001401  -0.008068  -0.000165   0.000000
     7  N   -0.000032  -0.000031  -0.042829   0.009363   0.000000
     8  N    0.000000   0.000000  -0.000001  -0.000002  -0.001150
     9  C   -0.039712  -0.038333  -0.000146   0.000004   0.000000
    10  C    0.354729   0.357256   0.000005   0.000000   0.000000
    11  C    0.001458   0.001272   0.004859   0.000003   0.000000
    12  C    0.000000   0.000000  -0.048216  -0.032607   0.003337
    13  C    0.000002   0.000003   0.320748  -0.001855  -0.000020
    14  C    0.000000   0.000000   0.003594   0.332627  -0.023828
    15  C    0.000000   0.000000  -0.000072   0.002147  -0.012666
    16  C    0.000000   0.000000  -0.000032  -0.006206   0.333584
    17  H    0.002415  -0.004170   0.000005  -0.000003   0.000000
    18  H   -0.004383   0.002149   0.000006   0.000073   0.000000
    19  H    0.516192  -0.038336   0.000000   0.000000   0.000000
    20  H   -0.038336   0.512878   0.000000   0.000000   0.000000
    21  H    0.000000   0.000000   0.485890   0.000093   0.000000
    22  H    0.000000   0.000000   0.000093   0.514622  -0.000946
    23  H    0.000000   0.000000   0.000000  -0.000946   0.511943
 Mulliken charges:
               1
     1  O   -0.498542
     2  O   -0.502228
     3  O   -0.483521
     4  O   -0.309862
     5  O   -0.294969
     6  N   -0.530897
     7  N   -0.295513
     8  N    0.060773
     9  C   -0.170478
    10  C   -0.179672
    11  C    0.947201
    12  C    0.296707
    13  C    0.038703
    14  C   -0.138578
    15  C    0.605239
    16  C   -0.128146
    17  H    0.240362
    18  H    0.236910
    19  H    0.234754
    20  H    0.236157
    21  H    0.264749
    22  H    0.181877
    23  H    0.188975
 Sum of Mulliken charges =   0.00000
 Mulliken charges with hydrogens summed into heavy atoms:
               1
     1  O   -0.498542
     2  O   -0.502228
     3  O   -0.483521
     4  O   -0.309862
     5  O   -0.294969
     6  N   -0.530897
     7  N   -0.295513
     8  N    0.060773
     9  C    0.306794
    10  C    0.291240
    11  C    0.947201
    12  C    0.296707
    13  C    0.303452
    14  C    0.043299
    15  C    0.605239
    16  C    0.060830
 Electronic spatial extent (au):  <R**2>=           5669.4695
 Charge=              0.0000 electrons
 Dipole moment (field-independent basis, Debye):
    X=              6.6163    Y=             -6.1818    Z=              0.5641  Tot=              9.0724
 Quadrupole moment (field-independent basis, Debye-Ang):
   XX=           -100.1535   YY=            -92.2715   ZZ=            -89.1608
   XY=             -7.8608   XZ=              4.6742   YZ=              1.5806
 Traceless Quadrupole moment (field-independent basis, Debye-Ang):
   XX=             -6.2916   YY=              1.5904   ZZ=              4.7012
   XY=             -7.8608   XZ=              4.6742   YZ=              1.5806
 Octapole moment (field-independent basis, Debye-Ang**2):
  XXX=            233.9999  YYY=            -18.7643  ZZZ=              2.3387  XYY=             -9.8633
  XXY=            -97.7406  XXZ=             18.1562  XZZ=              2.8063  YZZ=              7.4830
  YYZ=             -2.6314  XYZ=              7.6177
 Hexadecapole moment (field-independent basis, Debye-Ang**3):
 XXXX=          -6707.9906 YYYY=           -669.8574 ZZZZ=           -117.7515 XXXY=           -198.7061
 XXXZ=             48.3182 YYYX=              0.5251 YYYZ=             17.9290 ZZZX=            -10.1799
 ZZZY=             -5.2657 XXYY=          -1185.5474 XXZZ=          -1011.5212 YYZZ=           -135.1722
 XXYZ=             -3.2338 YYXZ=             24.4354 ZZXY=            -16.3706
 N-N= 1.027647994372D+03 E-N=-4.028110630273D+03  KE= 8.373433408208D+02
 PrsmSu:  requested number of processors reduced to:  10 ShMem   1 Linda.
 Calling FoFJK, ICntrl=      2127 FMM=F ISym2X=0 I1Cent= 0 IOpClX= 0 NMat=1 NMatS=1 NMatT=0.
 ***** Axes restored to original set *****
 -------------------------------------------------------------------
 Center     Atomic                   Forces (Hartrees/Bohr)
 Number     Number              X              Y              Z
 -------------------------------------------------------------------
      1        8           0.002719682   -0.006548582    0.001163437
      2        8          -0.006165447   -0.011734630   -0.002628922
      3        8          -0.005141592    0.001569278   -0.000931263
      4        8          -0.008283856    0.023125931    0.012091481
      5        8           0.006217789   -0.022227259   -0.012318210
      6        7           0.007296939   -0.009408953   -0.004413685
      7        7          -0.016615893    0.002500264    0.004224502
      8        7           0.010164131    0.001267462   -0.002469278
      9        6          -0.001138577    0.016126674   -0.001994076
     10        6           0.015236794    0.005779527   -0.003540098
     11        6          -0.012038950   -0.008739717    0.004284872
     12        6           0.012654308    0.001085942    0.001108760
     13        6           0.013151498   -0.002651887   -0.001477152
     14        6           0.098610272    0.031271440    0.002120480
     15        6          -0.022903920    0.010034791    0.011411697
     16        6          -0.027164427    0.097054452    0.028419459
     17        1          -0.000547051   -0.000972149    0.000957013
     18        1           0.000005376   -0.003943809   -0.001253804
     19        1          -0.001534740   -0.001457044   -0.001328457
     20        1          -0.001802348    0.002479150    0.002781603
     21        1           0.000112763    0.009445116    0.001995246
     22        1          -0.089430329   -0.041348476   -0.007700798
     23        1           0.026597579   -0.092707519   -0.030502807
 -------------------------------------------------------------------
 Cartesian Forces:  Max     0.098610272 RMS     0.025808834

 GradGradGradGradGradGradGradGradGradGradGradGradGradGradGradGradGradGrad
 Berny optimization.
 FormGI is forming the generalized inverse of G from B-inverse, IUseBI=4.
 GSVD:  received Info=                   1 from GESDD.
 Internal  Forces:  Max     0.100558139 RMS     0.014787783
 Search for a local minimum.
 Step number   1 out of a maximum of  125
 All quantities printed in internal units (Hartrees-Bohrs-Radians)
 Mixed Optimization -- RFO/linear search
 Second derivative matrix not updated -- first step.
 ITU=  0
     Eigenvalues ---    0.00510   0.01269   0.01337   0.01338   0.01403
     Eigenvalues ---    0.01534   0.01754   0.01766   0.01899   0.01942
     Eigenvalues ---    0.02034   0.02086   0.02145   0.02258   0.02318
     Eigenvalues ---    0.02888   0.04245   0.04654   0.05477   0.05799
     Eigenvalues ---    0.08227   0.08979   0.11223   0.11709   0.13400
     Eigenvalues ---    0.13779   0.15803   0.15904   0.15988   0.22003
     Eigenvalues ---    0.22687   0.22836   0.24705   0.24747   0.24896
     Eigenvalues ---    0.24961   0.24975   0.24992   0.25000   0.25000
     Eigenvalues ---    0.25000   0.27771   0.33839   0.33907   0.34149
     Eigenvalues ---    0.34178   0.34283   0.34763   0.36706   0.39326
     Eigenvalues ---    0.41454   0.41922   0.43265   0.43346   0.47491
     Eigenvalues ---    0.47942   0.49437   0.49944   0.51887   0.64601
     Eigenvalues ---    0.77895   0.79148   0.95269
 RFO step:  Lambda=-9.83404061D-02 EMin= 5.10280619D-03
 Linear search not attempted -- first point.
 Maximum step size (   0.300) exceeded in Quadratic search.
    -- Step size scaled by   0.477
 Iteration  1 RMS(Cart)=  0.07271025 RMS(Int)=  0.00170282
 Iteration  2 RMS(Cart)=  0.00284316 RMS(Int)=  0.00002506
 Iteration  3 RMS(Cart)=  0.00000533 RMS(Int)=  0.00002465
 Iteration  4 RMS(Cart)=  0.00000000 RMS(Int)=  0.00002465
 Variable       Old X    -DE/DX   Delta X   Delta X   Delta X     New X
                                 (Linear)    (Quad)   (Total)
    R1        2.76448   0.01362   0.00000   0.01424   0.01424   2.77873
    R2        2.60137   0.00910   0.00000   0.00734   0.00733   2.60870
    R3        2.61046   0.01397   0.00000   0.01178   0.01178   2.62224
    R4        2.59168   0.00943   0.00000   0.00761   0.00760   2.59929
    R5        2.30595   0.00131   0.00000   0.00059   0.00059   2.30654
    R6        2.39071   0.02541   0.00000   0.01381   0.01381   2.40452
    R7        2.38378   0.02252   0.00000   0.01207   0.01207   2.39585
    R8        2.58008   0.00544   0.00000   0.00420   0.00420   2.58428
    R9        2.75725   0.00716   0.00000   0.00705   0.00706   2.76431
   R10        2.65126  -0.00092   0.00000  -0.00098  -0.00098   2.65028
   R11        2.47475  -0.01256   0.00000  -0.00805  -0.00805   2.46670
   R12        2.69625  -0.00861   0.00000  -0.00801  -0.00801   2.68824
   R13        2.91577   0.00749   0.00000   0.00949   0.00949   2.92526
   R14        2.07030  -0.00119   0.00000  -0.00129  -0.00129   2.06901
   R15        2.07602  -0.00356   0.00000  -0.00388  -0.00388   2.07213
   R16        2.06855  -0.00228   0.00000  -0.00246  -0.00246   2.06609
   R17        2.07079  -0.00321   0.00000  -0.00348  -0.00348   2.06731
   R18        2.72480  -0.00238   0.00000  -0.00231  -0.00231   2.72250
   R19        2.61381  -0.00040   0.00000  -0.00025  -0.00024   2.61357
   R20        2.07487  -0.00962   0.00000  -0.01049  -0.01049   2.06438
   R21        2.65526   0.01014   0.00000   0.00843   0.00844   2.66370
   R22        2.67798  -0.09822   0.00000  -0.19829  -0.19829   2.47969
   R23        2.59790  -0.00350   0.00000  -0.00308  -0.00308   2.59482
   R24        2.69976  -0.10056   0.00000  -0.20633  -0.20633   2.49343
    A1        1.92412   0.00164   0.00000   0.00311   0.00311   1.92723
    A2        1.84472   0.00184   0.00000   0.00364   0.00364   1.84836
    A3        2.04979   0.00601   0.00000   0.00841   0.00841   2.05819
    A4        2.26672  -0.01369   0.00000  -0.01857  -0.01857   2.24815
    A5        1.96613   0.00768   0.00000   0.01014   0.01015   1.97628
    A6        2.14983  -0.02905   0.00000  -0.03975  -0.03975   2.11007
    A7        2.16894   0.01864   0.00000   0.02552   0.02551   2.19445
    A8        2.03060  -0.00554   0.00000  -0.00758  -0.00758   2.02302
    A9        2.08363  -0.01309   0.00000  -0.01791  -0.01791   2.06571
   A10        1.78010  -0.00263   0.00000  -0.00455  -0.00454   1.77556
   A11        1.92825   0.00090   0.00000   0.00136   0.00136   1.92962
   A12        1.93597   0.00005   0.00000  -0.00110  -0.00111   1.93486
   A13        1.95126   0.00126   0.00000   0.00282   0.00282   1.95408
   A14        1.97702  -0.00001   0.00000  -0.00094  -0.00096   1.97606
   A15        1.89014   0.00035   0.00000   0.00212   0.00212   1.89226
   A16        1.85676  -0.00222   0.00000  -0.00258  -0.00258   1.85418
   A17        1.89630  -0.00008   0.00000  -0.00116  -0.00115   1.89515
   A18        1.86914   0.00256   0.00000   0.00519   0.00519   1.87433
   A19        1.95437   0.00150   0.00000   0.00263   0.00263   1.95701
   A20        1.97295  -0.00181   0.00000  -0.00447  -0.00447   1.96848
   A21        1.91021   0.00010   0.00000   0.00053   0.00053   1.91073
   A22        2.15872   0.00801   0.00000   0.01100   0.01100   2.16972
   A23        1.89741  -0.00446   0.00000  -0.00610  -0.00611   1.89130
   A24        2.22677  -0.00352   0.00000  -0.00478  -0.00479   2.22199
   A25        2.07458  -0.00213   0.00000  -0.00311  -0.00311   2.07146
   A26        1.91447  -0.00413   0.00000  -0.00504  -0.00504   1.90943
   A27        2.29063   0.00637   0.00000   0.00853   0.00852   2.29914
   A28        2.01332   0.01062   0.00000   0.01593   0.01593   2.02925
   A29        2.18332  -0.00514   0.00000  -0.00760  -0.00760   2.17572
   A30        2.08505  -0.00540   0.00000  -0.00808  -0.00808   2.07697
   A31        1.87369   0.00154   0.00000   0.00162   0.00162   1.87531
   A32        1.97075   0.01339   0.00000   0.02553   0.02553   1.99628
   A33        2.43486  -0.01483   0.00000  -0.02671  -0.02673   2.40813
   A34        2.08765  -0.00383   0.00000  -0.00501  -0.00501   2.08264
   A35        1.94367  -0.00271   0.00000  -0.00407  -0.00407   1.93959
   A36        2.25043   0.00658   0.00000   0.00924   0.00924   2.25967
   A37        1.84808   0.00347   0.00000   0.00387   0.00387   1.85195
   A38        2.08737   0.01232   0.00000   0.02429   0.02430   2.11167
   A39        2.34125  -0.01567   0.00000  -0.02762  -0.02763   2.31362
    D1        0.01097  -0.00056   0.00000  -0.00169  -0.00169   0.00928
    D2        2.11803  -0.00008   0.00000  -0.00065  -0.00065   2.11738
    D3       -2.10346   0.00139   0.00000   0.00220   0.00220  -2.10126
    D4       -3.13816  -0.00067   0.00000  -0.00330  -0.00334  -3.14150
    D5       -0.02010   0.00054   0.00000   0.00157   0.00157  -0.01853
    D6        3.06067   0.00126   0.00000   0.00489   0.00491   3.06558
    D7       -0.00092  -0.00020   0.00000   0.00014   0.00018  -0.00074
    D8       -3.09867  -0.00064   0.00000  -0.00276  -0.00278  -3.10144
    D9       -0.00970   0.00034   0.00000   0.00054   0.00051  -0.00919
   D10        2.98755   0.00491   0.00000   0.02044   0.02044   3.00799
   D11       -0.19268   0.00498   0.00000   0.02024   0.02024  -0.17244
   D12        3.09506  -0.00057   0.00000  -0.00118  -0.00118   3.09388
   D13       -1.11143  -0.00013   0.00000   0.00022   0.00022  -1.11121
   D14        0.98479   0.00093   0.00000   0.00305   0.00305   0.98784
   D15       -0.01440  -0.00016   0.00000  -0.00038  -0.00038  -0.01478
   D16        2.06230   0.00027   0.00000   0.00102   0.00102   2.06332
   D17       -2.12467   0.00133   0.00000   0.00385   0.00385  -2.12082
   D18       -3.08225  -0.00029   0.00000  -0.00051  -0.00051  -3.08277
   D19        0.03462   0.00119   0.00000   0.00488   0.00486   0.03949
   D20        0.02218  -0.00022   0.00000  -0.00070  -0.00070   0.02148
   D21        3.13906   0.00126   0.00000   0.00469   0.00467  -3.13945
   D22        3.03045   0.00569   0.00000   0.02138   0.02138   3.05183
   D23       -0.05184   0.00441   0.00000   0.01645   0.01645  -0.03539
   D24        3.03874   0.00161   0.00000   0.00690   0.00691   3.04564
   D25       -0.03984   0.00083   0.00000   0.00352   0.00352  -0.03632
   D26       -0.09587   0.00040   0.00000   0.00173   0.00174  -0.09413
   D27        3.10875  -0.00038   0.00000  -0.00165  -0.00166   3.10709
   D28        0.00201   0.00036   0.00000   0.00114   0.00114   0.00315
   D29       -2.06728   0.00100   0.00000   0.00268   0.00268  -2.06459
   D30        2.04856   0.00109   0.00000   0.00338   0.00338   2.05194
   D31       -2.05831   0.00022   0.00000   0.00085   0.00085  -2.05746
   D32        2.15559   0.00086   0.00000   0.00239   0.00239   2.15798
   D33       -0.01176   0.00095   0.00000   0.00309   0.00309  -0.00867
   D34        2.08351  -0.00119   0.00000  -0.00340  -0.00340   2.08010
   D35        0.01422  -0.00056   0.00000  -0.00186  -0.00186   0.01236
   D36       -2.15313  -0.00047   0.00000  -0.00117  -0.00116  -2.15430
   D37        2.99312   0.00008   0.00000   0.00032   0.00031   2.99344
   D38       -0.20419   0.00125   0.00000   0.00491   0.00491  -0.19929
   D39       -0.24871   0.00120   0.00000   0.00535   0.00536  -0.24335
   D40        2.83716   0.00237   0.00000   0.00994   0.00995   2.84711
   D41        0.01073  -0.00004   0.00000  -0.00076  -0.00079   0.00994
   D42        3.07657   0.00006   0.00000   0.00185   0.00194   3.07852
   D43       -3.03764  -0.00111   0.00000  -0.00544  -0.00549  -3.04313
   D44        0.02820  -0.00102   0.00000  -0.00283  -0.00275   0.02544
   D45       -0.01609   0.00015   0.00000   0.00096   0.00098  -0.01511
   D46       -3.05231   0.00039   0.00000  -0.00121  -0.00134  -3.05365
   D47       -3.05012  -0.00247   0.00000  -0.00729  -0.00716  -3.05728
   D48        0.19684  -0.00223   0.00000  -0.00946  -0.00947   0.18736
   D49        0.01618  -0.00036   0.00000  -0.00100  -0.00098   0.01520
   D50        3.02999   0.00221   0.00000   0.00685   0.00679   3.03678
   D51        3.09895   0.00030   0.00000   0.00209   0.00211   3.10106
   D52       -0.17043   0.00286   0.00000   0.00994   0.00988  -0.16055
         Item               Value     Threshold  Converged?
 Maximum Force            0.100558     0.000450     NO 
 RMS     Force            0.014788     0.000300     NO 
 Maximum Displacement     0.288415     0.001800     NO 
 RMS     Displacement     0.072540     0.001200     NO 
 Predicted change in Energy=-4.024273D-02
 GradGradGradGradGradGradGradGradGradGradGradGradGradGradGradGradGradGrad

                          Input orientation:                          
 ---------------------------------------------------------------------
 Center     Atomic      Atomic             Coordinates (Angstroms)
 Number     Number       Type             X           Y           Z
 ---------------------------------------------------------------------
      1          8           0       11.940932    3.496061   -7.492681
      2          8           0        5.514259    4.660265   -6.509749
      3          8           0        9.871945    2.598535   -7.035487
      4          8           0        2.409571    5.827602   -5.279685
      5          8           0        2.935469    3.881150   -6.302150
      6          7           0       10.205083    4.917114   -7.247850
      7          7           0        8.979184    5.463386   -6.985297
      8          7           0        3.219381    5.033707   -5.856731
      9          6           0       11.313223    5.827455   -7.536141
     10          6           0       12.495959    4.842068   -7.698587
     11          6           0       10.585129    3.567129   -7.242823
     12          6           0        6.703579    5.374416   -6.477693
     13          6           0        7.920525    4.708950   -6.867263
     14          6           0        6.469254    6.634001   -5.956791
     15          6           0        4.554462    5.503469   -6.000089
     16          6           0        5.097983    6.711894   -5.639880
     17          1           0       11.119621    6.389838   -8.455376
     18          1           0       11.455101    6.541751   -6.716373
     19          1           0       13.279612    5.013227   -6.955652
     20          1           0       12.932554    4.865844   -8.701382
     21          1           0        7.913485    3.623999   -6.994615
     22          1           0        7.546378    7.369419   -5.812499
     23          1           0        4.562313    7.839720   -5.213206
 ---------------------------------------------------------------------
                    Distance matrix (angstroms):
                    1          2          3          4          5
     1  O    0.000000
     2  O    6.604821   0.000000
     3  O    2.301149   4.849388   0.000000
     4  O   10.058841   3.537630   8.318459   0.000000
     5  O    9.091976   2.701902   7.092079   2.260681   0.000000
     6  N    2.256658   4.755480   2.351996   8.091519   7.403705
     7  N    3.591624   3.588433   3.001152   6.797175   6.284635
     8  N    9.005895   2.415027   7.181653   1.272417   1.267830
     9  C    2.414810   6.003648   3.571255   9.185130   8.688935
    10  C    1.470438   7.084527   3.515479  10.419098   9.709601
    11  C    1.380465   5.238899   1.220571   8.706515   7.713674
    12  C    5.655819   1.387631   4.249140   4.480972   4.057007
    13  C    4.245694   2.433167   2.879269   5.843150   5.084819
    14  C    6.491910   2.261286   5.387660   4.194017   4.492783
    15  C    7.798555   1.375485   6.147058   2.285739   2.311773
    16  C    7.784626   2.266967   6.454313   2.852942   3.623283
    17  H    3.158367   6.180370   4.236362   9.287955   8.826678
    18  H    3.180396   6.235085   4.261123   9.186713   8.935015
    19  H    2.093385   7.786149   4.177237  11.028593  10.426406
    20  H    2.078600   7.737999   4.157310  11.107033  10.328003
    21  H    4.060144   2.658050   2.211066   6.171704   5.032522
    22  H    6.094098   3.457627   5.446586   5.389608   5.802435
    23  H    8.860441   3.563167   7.680034   2.947429   4.416185
                    6          7          8          9         10
     6  N    0.000000
     7  N    1.367544   0.000000
     8  N    7.123822   5.885033   0.000000
     9  C    1.462808   2.425637   8.304259   0.000000
    10  C    2.336003   3.641775   9.459601   1.547979   0.000000
    11  C    1.402469   2.498234   7.637168   2.392745   2.341893
    12  C    3.614249   2.333228   3.555462   4.751249   5.943538
    13  C    2.325378   1.305321   4.819481   3.634398   4.652248
    14  C    4.309403   2.954304   3.623896   5.158381   6.524266
    15  C    5.816377   4.533256   1.422557   6.938680   8.147989
    16  C    5.647058   4.293324   2.528336   6.557990   7.903453
    17  H    2.112680   2.756976   8.426496   1.094875   2.205136
    18  H    2.117654   2.713919   8.416665   1.096526   2.221948
    19  H    3.089878   4.324026  10.120093   2.206041   1.093325
    20  H    3.091033   4.350993  10.122547   2.214659   1.093974
    21  H    2.643424   2.125828   5.031567   4.087381   4.793572
    22  H    3.891369   2.657321   4.917357   4.420149   5.868832
    23  H    6.672500   5.319400   3.176680   7.417549   8.837747
                   11         12         13         14         15
    11  C    0.000000
    12  C    4.349498   0.000000
    13  C    2.923168   1.440683   0.000000
    14  C    5.291504   1.383041   2.577008   0.000000
    15  C    6.454669   2.205327   3.565619   2.224052   0.000000
    16  C    6.524396   2.251381   3.672192   1.409568   1.373120
    17  H    3.118278   4.944061   3.947367   5.284738   7.065084
    18  H    3.143625   4.898632   3.984363   5.044219   7.014978
    19  H    3.071467   6.603265   5.368446   7.071464   8.791000
    20  H    3.053598   6.633519   5.339386   7.241092   8.825870
    21  H    2.683751   2.189758   1.092422   3.496140   3.975491
    22  H    5.073189   2.265576   2.886280   1.312195   3.531079
    23  H    7.658244   3.501668   4.880084   2.375521   2.465221
                   16         17         18         19         20
    16  C    0.000000
    17  H    6.655138   0.000000
    18  H    6.449862   1.777571   0.000000
    19  H    8.459064   2.968129   2.392171   0.000000
    20  H    8.611689   2.381135   2.988611   1.785986   0.000000
    21  H    4.392887   4.479174   4.597144   5.543175   5.444840
    22  H    2.541018   4.551093   4.096357   6.303048   6.604880
    23  H    1.319464   7.457354   7.173197   9.328263   9.543178
                   21         22         23
    21  H    0.000000
    22  H    3.944660   0.000000
    23  H    5.672396   3.079769   0.000000
 Stoichiometry    C8H7N3O5
 Framework group  C1[X(C8H7N3O5)]
 Deg. of freedom    63
 Full point group                 C1      NOp   1
 Largest Abelian subgroup         C1      NOp   1
 Largest concise Abelian subgroup C1      NOp   1
                         Standard orientation:                         
 ---------------------------------------------------------------------
 Center     Atomic      Atomic             Coordinates (Angstroms)
 Number     Number       Type             X           Y           Z
 ---------------------------------------------------------------------
      1          8           0        4.594872    0.870538   -0.192214
      2          8           0       -1.990254    0.553163    0.206587
      3          8           0        2.599927    2.001134   -0.385171
      4          8           0       -5.397359   -0.283844   -0.247155
      5          8           0       -4.444411    1.671868    0.367468
      6          7           0        2.686862   -0.299460    0.096074
      7          7           0        1.376421   -0.687283    0.146202
      8          7           0       -4.397746    0.445506    0.049267
      9          6           0        3.712287   -1.321763    0.303936
     10          6           0        5.013509   -0.508262    0.100774
     11          6           0        3.218102    0.969943   -0.174701
     12          6           0       -0.927103   -0.326400    0.059619
     13          6           0        0.414732    0.194864    0.117326
     14          6           0       -1.412273   -1.590819   -0.220841
     15          6           0       -3.127940   -0.194616    0.010486
     16          6           0       -2.818470   -1.503805   -0.264667
     17          1           0        3.642337   -1.736553    1.314781
     18          1           0        3.598034   -2.141332   -0.415522
     19          1           0        5.604054   -0.879457   -0.741147
     20          1           0        5.637920   -0.476630    0.998487
     21          1           0        0.564600    1.276477    0.085073
     22          1           0       -0.483443   -2.488132   -0.453133
     23          1           0       -3.561526   -2.583450   -0.417054
 ---------------------------------------------------------------------
 Rotational constants (GHZ):      1.8720594      0.1909480      0.1749926
 Standard basis: 3-21G (6D, 7F)
 There are   158 symmetry adapted cartesian basis functions of A   symmetry.
 There are   158 symmetry adapted basis functions of A   symmetry.
   158 basis functions,   261 primitive gaussians,   158 cartesian basis functions
    58 alpha electrons       58 beta electrons
       nuclear repulsion energy      1029.3999497439 Hartrees.
 NAtoms=   23 NActive=   23 NUniq=   23 SFac= 1.00D+00 NAtFMM=   60 NAOKFM=F Big=F
 Integral buffers will be    131072 words long.
 Raffenetti 2 integral format.
 Two-electron integral symmetry is turned on.
 One-electron integrals computed using PRISM.
 PrsmSu:  requested number of processors reduced to:   9 ShMem   1 Linda.
 NBasis=   158 RedAO= T EigKep=  2.79D-03  NBF=   158
 NBsUse=   158 1.00D-06 EigRej= -1.00D+00 NBFU=   158
 Initial guess from the checkpoint file:  "/tmp/scratch/63913.prometeo/Gau-2247.chk"
 B after Tr=     0.000000    0.000000    0.000000
         Rot=    0.999999   -0.000838   -0.000901   -0.000959 Ang=  -0.18 deg.
 ExpMin= 1.83D-01 ExpMax= 3.22D+02 ExpMxC= 3.22D+02 IAcc=1 IRadAn=         1 AccDes= 0.00D+00
 Harris functional with IExCor=  402 and IRadAn=       1 diagonalized for initial guess.
 HarFok:  IExCor=  402 AccDes= 0.00D+00 IRadAn=         1 IDoV= 1 UseB2=F ITyADJ=14
 ICtDFT=  3500011 ScaDFX=  1.000000  1.000000  1.000000  1.000000
 FoFCou: FMM=F IPFlag=           0 FMFlag=      100000 FMFlg1=           0
         NFxFlg=           0 DoJE=T BraDBF=F KetDBF=T FulRan=T
         wScrn=  0.000000 ICntrl=     500 IOpCl=  0 I1Cent=   200000004 NGrid=           0
         NMat0=    1 NMatS0=      1 NMatT0=    0 NMatD0=    1 NMtDS0=    0 NMtDT0=    0
 Petite list used in FoFCou.
 Requested convergence on RMS density matrix=1.00D-08 within 128 cycles.
 Requested convergence on MAX density matrix=1.00D-06.
 Requested convergence on             energy=1.00D-06.
 No special actions if energy rises.
 Integral accuracy reduced to 1.0D-05 until final iterations.
 Initial convergence to 1.0D-05 achieved.  Increase integral accuracy.
 SCF Done:  E(RB3LYP) =  -844.493610526     A.U. after   15 cycles
            NFock= 15  Conv=0.68D-08     -V/T= 2.0085
 PrsmSu:  requested number of processors reduced to:  10 ShMem   1 Linda.
 Calling FoFJK, ICntrl=      2127 FMM=F ISym2X=0 I1Cent= 0 IOpClX= 0 NMat=1 NMatS=1 NMatT=0.
 ***** Axes restored to original set *****
 -------------------------------------------------------------------
 Center     Atomic                   Forces (Hartrees/Bohr)
 Number     Number              X              Y              Z
 -------------------------------------------------------------------
      1        8           0.002229470   -0.006009091    0.000629544
      2        8          -0.003711784   -0.009868977   -0.002046517
      3        8          -0.002011315   -0.000613512   -0.000884472
      4        8          -0.007367438    0.014585788    0.007593595
      5        8           0.003160916   -0.014622076   -0.007191534
      6        7           0.009639690   -0.008146742   -0.003879626
      7        7          -0.013471230    0.003711129    0.003214220
      8        7           0.010201698    0.001703049   -0.003148384
      9        6          -0.000901911    0.011208243   -0.001240887
     10        6           0.010193880    0.003513322   -0.002367412
     11        6          -0.007304421   -0.001678485    0.002576874
     12        6           0.005445775    0.000591582    0.002311872
     13        6           0.003901229   -0.001799580   -0.000417468
     14        6           0.088021836    0.031689324    0.002202851
     15        6          -0.014919335    0.007354142    0.008875147
     16        6          -0.028462997    0.088895041    0.024255419
     17        1          -0.000606327   -0.001091818    0.000543630
     18        1          -0.000053116   -0.003103139   -0.000434591
     19        1          -0.001429783   -0.001330921   -0.000606274
     20        1          -0.001407030    0.001461760    0.001803828
     21        1          -0.000471679    0.006719429    0.001095622
     22        1          -0.079059278   -0.039793020   -0.006928752
     23        1           0.028383151   -0.083375447   -0.025956684
 -------------------------------------------------------------------
 Cartesian Forces:  Max     0.088895041 RMS     0.022974881

 GradGradGradGradGradGradGradGradGradGradGradGradGradGradGradGradGradGrad
 Berny optimization.
 Using GEDIIS/GDIIS optimizer.
 FormGI is forming the generalized inverse of G from B-inverse, IUseBI=4.
 GSVD:  received Info=                   1 from GESDD.
 Internal  Forces:  Max     0.091183880 RMS     0.012651748
 Search for a local minimum.
 Step number   2 out of a maximum of  125
 All quantities printed in internal units (Hartrees-Bohrs-Radians)
 Mixed Optimization -- RFO/linear search
 Update second derivatives using D2CorX and points    1    2
 DE= -4.41D-02 DEPred=-4.02D-02 R= 1.10D+00
 TightC=F SS=  1.41D+00  RLast= 3.04D-01 DXNew= 5.0454D-01 9.1126D-01
 Trust test= 1.10D+00 RLast= 3.04D-01 DXMaxT set to 5.05D-01
 ITU=  1  0
 Use linear search instead of GDIIS.
 Linear search step of   0.600 exceeds DXMaxT=   0.505 but not scaled.
 Quartic linear search produced a step of  2.00000.
 Iteration  1 RMS(Cart)=  0.13846178 RMS(Int)=  0.02961057
 Iteration  2 RMS(Cart)=  0.02767999 RMS(Int)=  0.00306956
 Iteration  3 RMS(Cart)=  0.00294738 RMS(Int)=  0.00014506
 Iteration  4 RMS(Cart)=  0.00000238 RMS(Int)=  0.00014504
 Iteration  5 RMS(Cart)=  0.00000000 RMS(Int)=  0.00014504
 Variable       Old X    -DE/DX   Delta X   Delta X   Delta X     New X
                                 (Linear)    (Quad)   (Total)
    R1        2.77873   0.00814   0.02848   0.00000   0.02846   2.80719
    R2        2.60870   0.00586   0.01466   0.00000   0.01463   2.62333
    R3        2.62224   0.00862   0.02356   0.00000   0.02356   2.64580
    R4        2.59929   0.00592   0.01521   0.00000   0.01518   2.61447
    R5        2.30654   0.00151   0.00118   0.00000   0.00118   2.30773
    R6        2.40452   0.01723   0.02762   0.00000   0.02762   2.43214
    R7        2.39585   0.01511   0.02413   0.00000   0.02413   2.41998
    R8        2.58428   0.01053   0.00840   0.00000   0.00840   2.59269
    R9        2.76431   0.00397   0.01412   0.00000   0.01415   2.77845
   R10        2.65028   0.00017  -0.00196   0.00000  -0.00196   2.64833
   R11        2.46670  -0.00528  -0.01609   0.00000  -0.01609   2.45061
   R12        2.68824  -0.00645  -0.01601   0.00000  -0.01601   2.67223
   R13        2.92526   0.00504   0.01898   0.00000   0.01900   2.94426
   R14        2.06901  -0.00091  -0.00257   0.00000  -0.00257   2.06644
   R15        2.07213  -0.00235  -0.00777   0.00000  -0.00777   2.06436
   R16        2.06609  -0.00164  -0.00492   0.00000  -0.00492   2.06116
   R17        2.06731  -0.00219  -0.00696   0.00000  -0.00696   2.06035
   R18        2.72250  -0.00276  -0.00461   0.00000  -0.00461   2.71789
   R19        2.61357   0.00011  -0.00049   0.00000  -0.00047   2.61310
   R20        2.06438  -0.00680  -0.02097   0.00000  -0.02097   2.04341
   R21        2.66370   0.00667   0.01687   0.00000   0.01689   2.68059
   R22        2.47969  -0.08796  -0.39658   0.00000  -0.39658   2.08311
   R23        2.59482  -0.00259  -0.00616   0.00000  -0.00617   2.58865
   R24        2.49343  -0.09118  -0.41266   0.00000  -0.41266   2.08077
    A1        1.92723   0.00008   0.00621   0.00000   0.00615   1.93338
    A2        1.84836  -0.00039   0.00728   0.00000   0.00726   1.85561
    A3        2.05819   0.00131   0.01681   0.00000   0.01679   2.07498
    A4        2.24815  -0.00494  -0.03714   0.00000  -0.03716   2.21100
    A5        1.97628   0.00362   0.02030   0.00000   0.02034   1.99661
    A6        2.11007  -0.01120  -0.07951   0.00000  -0.07951   2.03056
    A7        2.19445   0.00964   0.05103   0.00000   0.05100   2.24545
    A8        2.02302  -0.00283  -0.01516   0.00000  -0.01519   2.00783
    A9        2.06571  -0.00681  -0.03582   0.00000  -0.03585   2.02987
   A10        1.77556  -0.00107  -0.00908   0.00000  -0.00904   1.76652
   A11        1.92962   0.00030   0.00272   0.00000   0.00274   1.93235
   A12        1.93486  -0.00034  -0.00222   0.00000  -0.00229   1.93256
   A13        1.95408   0.00066   0.00564   0.00000   0.00564   1.95972
   A14        1.97606  -0.00031  -0.00192   0.00000  -0.00200   1.97406
   A15        1.89226   0.00067   0.00424   0.00000   0.00424   1.89650
   A16        1.85418  -0.00103  -0.00516   0.00000  -0.00515   1.84903
   A17        1.89515  -0.00046  -0.00231   0.00000  -0.00230   1.89285
   A18        1.87433   0.00145   0.01037   0.00000   0.01034   1.88467
   A19        1.95701   0.00103   0.00527   0.00000   0.00528   1.96229
   A20        1.96848  -0.00133  -0.00894   0.00000  -0.00893   1.95955
   A21        1.91073   0.00035   0.00105   0.00000   0.00106   1.91179
   A22        2.16972   0.00208   0.02200   0.00000   0.02199   2.19171
   A23        1.89130  -0.00159  -0.01222   0.00000  -0.01226   1.87904
   A24        2.22199  -0.00047  -0.00957   0.00000  -0.00959   2.21240
   A25        2.07146  -0.00269  -0.00623   0.00000  -0.00625   2.06521
   A26        1.90943  -0.00122  -0.01007   0.00000  -0.01007   1.89937
   A27        2.29914   0.00399   0.01704   0.00000   0.01700   2.31614
   A28        2.02925   0.00600   0.03186   0.00000   0.03184   2.06109
   A29        2.17572  -0.00250  -0.01520   0.00000  -0.01522   2.16050
   A30        2.07697  -0.00346  -0.01617   0.00000  -0.01619   2.06077
   A31        1.87531   0.00010   0.00325   0.00000   0.00328   1.87859
   A32        1.99628   0.01445   0.05106   0.00000   0.05106   2.04734
   A33        2.40813  -0.01446  -0.05345   0.00000  -0.05355   2.35458
   A34        2.08264  -0.00343  -0.01001   0.00000  -0.01001   2.07263
   A35        1.93959  -0.00039  -0.00815   0.00000  -0.00818   1.93141
   A36        2.25967   0.00387   0.01848   0.00000   0.01848   2.27815
   A37        1.85195   0.00191   0.00773   0.00000   0.00774   1.85969
   A38        2.11167   0.01165   0.04860   0.00000   0.04864   2.16030
   A39        2.31362  -0.01344  -0.05526   0.00000  -0.05534   2.25828
    D1        0.00928  -0.00046  -0.00339   0.00000  -0.00343   0.00585
    D2        2.11738  -0.00007  -0.00131   0.00000  -0.00131   2.11607
    D3       -2.10126   0.00090   0.00440   0.00000   0.00442  -2.09684
    D4       -3.14150  -0.00056  -0.00667   0.00000  -0.00689   3.13480
    D5       -0.01853   0.00044   0.00315   0.00000   0.00317  -0.01535
    D6        3.06558   0.00112   0.00981   0.00000   0.00991   3.07548
    D7       -0.00074  -0.00012   0.00036   0.00000   0.00059  -0.00015
    D8       -3.10144  -0.00061  -0.00555   0.00000  -0.00565  -3.10710
    D9       -0.00919   0.00023   0.00101   0.00000   0.00081  -0.00838
   D10        3.00799   0.00393   0.04088   0.00000   0.04089   3.04888
   D11       -0.17244   0.00386   0.04048   0.00000   0.04047  -0.13197
   D12        3.09388  -0.00032  -0.00237   0.00000  -0.00240   3.09148
   D13       -1.11121  -0.00001   0.00043   0.00000   0.00042  -1.11079
   D14        0.98784   0.00081   0.00609   0.00000   0.00605   0.99388
   D15       -0.01478  -0.00009  -0.00076   0.00000  -0.00076  -0.01554
   D16        2.06332   0.00023   0.00204   0.00000   0.00205   2.06537
   D17       -2.12082   0.00104   0.00770   0.00000   0.00768  -2.11314
   D18       -3.08277  -0.00011  -0.00102   0.00000  -0.00102  -3.08378
   D19        0.03949   0.00096   0.00972   0.00000   0.00963   0.04911
   D20        0.02148  -0.00021  -0.00140   0.00000  -0.00141   0.02007
   D21       -3.13945   0.00086   0.00935   0.00000   0.00923  -3.13022
   D22        3.05183   0.00426   0.04275   0.00000   0.04275   3.09457
   D23       -0.03539   0.00332   0.03289   0.00000   0.03290  -0.00249
   D24        3.04564   0.00136   0.01382   0.00000   0.01384   3.05949
   D25       -0.03632   0.00054   0.00703   0.00000   0.00701  -0.02931
   D26       -0.09413   0.00066   0.00347   0.00000   0.00350  -0.09063
   D27        3.10709  -0.00016  -0.00331   0.00000  -0.00334   3.10375
   D28        0.00315   0.00028   0.00228   0.00000   0.00227   0.00542
   D29       -2.06459   0.00091   0.00537   0.00000   0.00536  -2.05923
   D30        2.05194   0.00067   0.00676   0.00000   0.00677   2.05870
   D31       -2.05746   0.00025   0.00170   0.00000   0.00170  -2.05576
   D32        2.15798   0.00087   0.00479   0.00000   0.00479   2.16277
   D33       -0.00867   0.00063   0.00618   0.00000   0.00619  -0.00248
   D34        2.08010  -0.00092  -0.00681   0.00000  -0.00679   2.07331
   D35        0.01236  -0.00030  -0.00372   0.00000  -0.00371   0.00865
   D36       -2.15430  -0.00054  -0.00233   0.00000  -0.00230  -2.15660
   D37        2.99344   0.00019   0.00063   0.00000   0.00057   2.99401
   D38       -0.19929   0.00108   0.00981   0.00000   0.00976  -0.18952
   D39       -0.24335   0.00138   0.01072   0.00000   0.01077  -0.23258
   D40        2.84711   0.00227   0.01990   0.00000   0.01996   2.86707
   D41        0.00994  -0.00006  -0.00159   0.00000  -0.00175   0.00819
   D42        3.07852   0.00005   0.00388   0.00000   0.00443   3.08294
   D43       -3.04313  -0.00108  -0.01098   0.00000  -0.01124  -3.05437
   D44        0.02544  -0.00097  -0.00551   0.00000  -0.00506   0.02039
   D45       -0.01511   0.00016   0.00196   0.00000   0.00203  -0.01308
   D46       -3.05365   0.00009  -0.00267   0.00000  -0.00344  -3.05708
   D47       -3.05728  -0.00225  -0.01431   0.00000  -0.01350  -3.07078
   D48        0.18736  -0.00231  -0.01894   0.00000  -0.01897   0.16840
   D49        0.01520  -0.00026  -0.00197   0.00000  -0.00186   0.01334
   D50        3.03678   0.00215   0.01358   0.00000   0.01317   3.04995
   D51        3.10106   0.00040   0.00423   0.00000   0.00441   3.10547
   D52       -0.16055   0.00281   0.01977   0.00000   0.01944  -0.14110
         Item               Value     Threshold  Converged?
 Maximum Force            0.091184     0.000450     NO 
 RMS     Force            0.012652     0.000300     NO 
 Maximum Displacement     0.552798     0.001800     NO 
 RMS     Displacement     0.143745     0.001200     NO 
 Predicted change in Energy=-6.841692D-02
 GradGradGradGradGradGradGradGradGradGradGradGradGradGradGradGradGradGrad

                          Input orientation:                          
 ---------------------------------------------------------------------
 Center     Atomic      Atomic             Coordinates (Angstroms)
 Number     Number       Type             X           Y           Z
 ---------------------------------------------------------------------
      1          8           0       11.795064    3.423864   -7.541716
      2          8           0        5.590324    4.693245   -6.457151
      3          8           0        9.626632    2.738718   -7.073242
      4          8           0        2.399574    5.717199   -5.313495
      5          8           0        3.120653    3.746998   -6.290089
      6          7           0       10.217238    5.002806   -7.243361
      7          7           0        9.034406    5.630742   -6.945088
      8          7           0        3.273385    4.940467   -5.851636
      9          6           0       11.403831    5.822265   -7.530147
     10          6           0       12.490029    4.723251   -7.729667
     11          6           0       10.448624    3.620809   -7.267067
     12          6           0        6.749043    5.478818   -6.434418
     13          6           0        7.996283    4.866216   -6.805436
     14          6           0        6.427863    6.733832   -5.950779
     15          6           0        4.568169    5.494267   -5.979984
     16          6           0        5.041148    6.737378   -5.652167
     17          1           0       11.250813    6.422477   -8.431314
     18          1           0       11.621107    6.493298   -6.695955
     19          1           0       13.293684    4.794272   -6.995661
     20          1           0       12.912045    4.736974   -8.734878
     21          1           0        8.022788    3.790578   -6.912960
     22          1           0        7.253849    7.452063   -5.820280
     23          1           0        4.488447    7.630461   -5.321509
 ---------------------------------------------------------------------
                    Distance matrix (angstroms):
                    1          2          3          4          5
     1  O    0.000000
     2  O    6.425450   0.000000
     3  O    2.321851   4.526756   0.000000
     4  O    9.924695   3.540807   8.012391   0.000000
     5  O    8.770199   2.650013   6.630062   2.314170   0.000000
     6  N    2.252024   4.703433   2.346029   8.083972   7.269615
     7  N    3.584342   3.602594   2.954820   6.833050   6.240993
     8  N    8.819040   2.407483   6.834015   1.287033   1.280600
     9  C    2.430129   6.018544   3.588240   9.273685   8.628761
    10  C    1.485500   7.016133   3.545182  10.423200   9.529463
    11  C    1.388208   5.040750   1.221198   8.543915   7.393887
    12  C    5.559791   1.400097   4.024521   4.497907   4.023089
    13  C    4.129555   2.437183   2.693698   5.854332   5.028917
    14  C    6.503370   2.263156   5.239559   4.203187   4.469222
    15  C    7.678124   1.383520   5.863132   2.279629   2.290069
    16  C    7.756620   2.264525   6.247832   2.851907   3.610764
    17  H    3.174787   6.239287   4.248813   9.410773   8.822842
    18  H    3.188573   6.298219   4.268155   9.356826   8.942294
    19  H    2.102869   7.722820   4.204592  11.061785  10.251106
    20  H    2.096554   7.667956   4.189034  11.098592  10.140435
    21  H    3.841859   2.634283   1.924686   6.155541   4.941740
    22  H    6.309704   3.283899   5.423618   5.179823   5.570596
    23  H    8.718453   3.336323   7.307439   2.832671   4.229691
                    6          7          8          9         10
     6  N    0.000000
     7  N    1.371991   0.000000
     8  N    7.082222   5.904361   0.000000
[...]
                    6          7          8          9         10
     6  N    0.000000
     7  N    1.392794   0.000000
     8  N    7.103980   5.885089   0.000000
     9  C    1.471317   2.452599   8.335741   0.000000
    10  C    2.317340   3.645470   9.412497   1.548871   0.000000
    11  C    1.401040   2.515939   7.532513   2.393333   2.346098
    12  C    3.630133   2.345079   3.547389   4.794318   5.940989
    13  C    2.318733   1.301249   4.791273   3.642231   4.623472
    14  C    4.384759   2.992572   3.622891   5.260697   6.601440
    15  C    5.834273   4.557869   1.407609   7.002581   8.147361
    16  C    5.713293   4.334703   2.519183   6.665359   7.972167
    17  H    2.118494   2.823368   8.527080   1.094517   2.211437
    18  H    2.116460   2.698559   8.448445   1.089955   2.211946
    19  H    2.866053   4.106428   9.772601   2.197362   1.092150
    20  H    3.215411   4.504036  10.294350   2.219647   1.087895
    21  H    2.603815   2.111128   4.955546   4.061627   4.727605
    22  H    4.258055   2.916890   4.642788   4.852186   6.298979
    23  H    6.637508   5.245874   2.901473   7.479381   8.848144
                   11         12         13         14         15
    11  C    0.000000
    12  C    4.326367   0.000000
    13  C    2.892798   1.434470   0.000000
    14  C    5.349329   1.380226   2.583495   0.000000
    15  C    6.405092   2.214821   3.560519   2.234718   0.000000
    16  C    6.553673   2.254559   3.676391   1.421518   1.369372
    17  H    2.987499   5.033378   3.997294   5.384643   7.186364
    18  H    3.227254   4.925978   3.959362   5.175361   7.079381
    19  H    2.900824   6.340126   5.056240   6.976430   8.517024
    20  H    3.182677   6.812973   5.514486   7.421236   9.020269
    21  H    2.609569   2.161016   1.082296   3.487791   3.928464
    22  H    5.422762   2.183454   2.985478   1.075027   3.280600
    23  H    7.555242   3.301718   4.703103   2.253710   2.171901
                   16         17         18         19         20
    16  C    0.000000
    17  H    6.775975   0.000000
    18  H    6.589021   1.790540   0.000000
    19  H    8.334017   3.067706   2.405123   0.000000
    20  H    8.805207   2.433021   2.866562   1.794310   0.000000
    21  H    4.369325   4.481596   4.545967   5.153858   5.621684
    22  H    2.246554   4.908237   4.618725   6.660883   7.057494
    23  H    1.074091   7.537902   7.315276   9.194857   9.655090
                   21         22         23
    21  H    0.000000
    22  H    4.025364   0.000000
    23  H    5.436070   2.749497   0.000000
 Stoichiometry    C8H7N3O5
 Framework group  C1[X(C8H7N3O5)]
 Deg. of freedom    63
 Full point group                 C1      NOp   1
 Largest Abelian subgroup         C1      NOp   1
 Largest concise Abelian subgroup C1      NOp   1
                         Standard orientation:                         
 ---------------------------------------------------------------------
 Center     Atomic      Atomic             Coordinates (Angstroms)
 Number     Number       Type             X           Y           Z
 ---------------------------------------------------------------------
      1          8           0        4.560499    0.951298    0.075944
      2          8           0       -1.950936    0.531942   -0.020708
      3          8           0        2.504785    2.014010    0.070454
      4          8           0       -5.407944   -0.238874    0.005172
      5          8           0       -4.302899    1.785517   -0.037498
      6          7           0        2.704357   -0.332620   -0.031747
      7          7           0        1.390192   -0.793096   -0.003334
      8          7           0       -4.350154    0.504062   -0.012426
      9          6           0        3.781728   -1.323636    0.116346
     10          6           0        5.013067   -0.439186   -0.200761
     11          6           0        3.166614    0.988032    0.039728
     12          6           0       -0.924680   -0.417920   -0.005665
     13          6           0        0.421962    0.076102   -0.019860
     14          6           0       -1.465494   -1.687510    0.020495
     15          6           0       -3.128211   -0.194592   -0.002588
     16          6           0       -2.879433   -1.540935    0.022927
     17          1           0        3.801914   -1.716818    1.137603
     18          1           0        3.653175   -2.138299   -0.596255
     19          1           0        5.290520   -0.504383   -1.255067
     20          1           0        5.870127   -0.643642    0.437331
     21          1           0        0.563178    1.148990   -0.038168
     22          1           0       -0.898658   -2.600826    0.035812
     23          1           0       -3.632376   -2.306725    0.040650
 ---------------------------------------------------------------------
 Rotational constants (GHZ):      1.8325984      0.1936513      0.1756727

 **********************************************************************

            Population analysis using the SCF density.

 **********************************************************************

 Orbital symmetries:
       Occupied  (A) (A) (A) (A) (A) (A) (A) (A) (A) (A) (A) (A)
                 (A) (A) (A) (A) (A) (A) (A) (A) (A) (A) (A) (A)
                 (A) (A) (A) (A) (A) (A) (A) (A) (A) (A) (A) (A)
                 (A) (A) (A) (A) (A) (A) (A) (A) (A) (A) (A) (A)
                 (A) (A) (A) (A) (A) (A) (A) (A) (A) (A)
       Virtual   (A) (A) (A) (A) (A) (A) (A) (A) (A) (A) (A) (A)
                 (A) (A) (A) (A) (A) (A) (A) (A) (A) (A) (A) (A)
                 (A) (A) (A) (A) (A) (A) (A) (A) (A) (A) (A) (A)
                 (A) (A) (A) (A) (A) (A) (A) (A) (A) (A) (A) (A)
                 (A) (A) (A) (A) (A) (A) (A) (A) (A) (A) (A) (A)
                 (A) (A) (A) (A) (A) (A) (A) (A) (A) (A) (A) (A)
                 (A) (A) (A) (A) (A) (A) (A) (A) (A) (A) (A) (A)
                 (A) (A) (A) (A) (A) (A) (A) (A) (A) (A) (A) (A)
                 (A) (A) (A) (A)
 The electronic state is 1-A.
 Alpha  occ. eigenvalues --  -19.15533 -19.10516 -19.06533 -19.06218 -19.05166
 Alpha  occ. eigenvalues --  -14.48216 -14.35819 -14.32917 -10.30715 -10.25384
 Alpha  occ. eigenvalues --  -10.23074 -10.22418 -10.20845 -10.19605 -10.17553
 Alpha  occ. eigenvalues --  -10.16630  -1.20021  -1.15359  -1.13721  -1.05823
 Alpha  occ. eigenvalues --   -1.04019  -1.03148  -0.90556  -0.85544  -0.83565
 Alpha  occ. eigenvalues --   -0.79551  -0.75117  -0.68813  -0.67835  -0.65044
 Alpha  occ. eigenvalues --   -0.58832  -0.58196  -0.55659  -0.54656  -0.54303
 Alpha  occ. eigenvalues --   -0.53052  -0.52232  -0.50396  -0.48605  -0.47353
 Alpha  occ. eigenvalues --   -0.46184  -0.45650  -0.45167  -0.44968  -0.44270
 Alpha  occ. eigenvalues --   -0.43487  -0.40657  -0.39026  -0.38005  -0.33158
 Alpha  occ. eigenvalues --   -0.31991  -0.30797  -0.30253  -0.28808  -0.28319
 Alpha  occ. eigenvalues --   -0.27959  -0.27718  -0.23917
 Alpha virt. eigenvalues --   -0.10535  -0.05511   0.02121   0.04175   0.05734
 Alpha virt. eigenvalues --    0.08116   0.08737   0.09589   0.11407   0.11451
 Alpha virt. eigenvalues --    0.13629   0.14689   0.14989   0.16022   0.17337
 Alpha virt. eigenvalues --    0.18674   0.20015   0.20939   0.21705   0.23713
 Alpha virt. eigenvalues --    0.25089   0.29111   0.31133   0.34318   0.35568
 Alpha virt. eigenvalues --    0.40738   0.43550   0.46284   0.51701   0.62140
 Alpha virt. eigenvalues --    0.65294   0.65678   0.66128   0.67525   0.67692
 Alpha virt. eigenvalues --    0.69615   0.69787   0.71764   0.72617   0.74584
 Alpha virt. eigenvalues --    0.75258   0.76063   0.76473   0.76853   0.79305
 Alpha virt. eigenvalues --    0.79920   0.84885   0.86276   0.88512   0.90248
 Alpha virt. eigenvalues --    0.95582   0.97051   0.98505   1.00004   1.02830
 Alpha virt. eigenvalues --    1.04905   1.07096   1.08731   1.09324   1.13884
 Alpha virt. eigenvalues --    1.18382   1.18994   1.23692   1.27793   1.29004
 Alpha virt. eigenvalues --    1.31414   1.34457   1.37684   1.43495   1.43874
 Alpha virt. eigenvalues --    1.47201   1.48417   1.50477   1.52857   1.55382
 Alpha virt. eigenvalues --    1.55863   1.57730   1.58736   1.61176   1.63768
 Alpha virt. eigenvalues --    1.64112   1.65404   1.67581   1.68876   1.73295
 Alpha virt. eigenvalues --    1.78114   1.81346   1.84822   1.93748   1.95650
 Alpha virt. eigenvalues --    2.11741   2.23667   2.55098   2.73775   2.77072
 Alpha virt. eigenvalues --    2.85583   2.87476   3.12223   3.32453   3.42737
          Condensed to atoms (all electrons):
               1          2          3          4          5          6
     1  O    8.258954   0.000000  -0.038588   0.000000   0.000000  -0.077572
     2  O    0.000000   8.167003   0.000000   0.000300   0.000292  -0.000002
     3  O   -0.038588   0.000000   8.041963   0.000000   0.000000  -0.061828
     4  O    0.000000   0.000300   0.000000   8.237032  -0.047840   0.000000
     5  O    0.000000   0.000292   0.000000  -0.047840   8.234336   0.000000
     6  N   -0.077572  -0.000002  -0.061828   0.000000   0.000000   7.363070
     7  N    0.000765   0.000590  -0.001641   0.000000   0.000000   0.208129
     8  N    0.000000  -0.020402   0.000000   0.188296   0.155859   0.000000
     9  C   -0.029702   0.000000   0.000918   0.000000   0.000000   0.225310
    10  C    0.224438   0.000000   0.000877   0.000000   0.000000  -0.042202
    11  C    0.204831   0.000001   0.512045   0.000000   0.000000   0.069764
    12  C    0.000000   0.267312   0.000525  -0.000033   0.000241   0.005625
    13  C   -0.000030  -0.021112  -0.006474   0.000000   0.000002  -0.082393
    14  C    0.000000  -0.081000   0.000000   0.000368  -0.000062  -0.000112
    15  C    0.000000   0.277999   0.000000  -0.092308  -0.066101   0.000000
    16  C    0.000000  -0.088917   0.000000   0.012857   0.003146  -0.000001
    17  H    0.001045   0.000000   0.000009   0.000000   0.000000  -0.043329
    18  H    0.001236   0.000000  -0.000015   0.000000   0.000000  -0.033131
    19  H   -0.031545   0.000000   0.000025   0.000000   0.000000   0.001421
    20  H   -0.023310   0.000000  -0.000024   0.000000   0.000000   0.001899
    21  H    0.000080   0.000213   0.034690   0.000000   0.000000  -0.010934
    22  H    0.000000   0.001636   0.000000   0.000000   0.000000  -0.000016
    23  H    0.000000   0.001662   0.000000   0.004853   0.000017   0.000000
               7          8          9         10         11         12
     1  O    0.000765   0.000000  -0.029702   0.224438   0.204831   0.000000
     2  O    0.000590  -0.020402   0.000000   0.000000   0.000001   0.267312
     3  O   -0.001641   0.000000   0.000918   0.000877   0.512045   0.000525
     4  O    0.000000   0.188296   0.000000   0.000000   0.000000  -0.000033
     5  O    0.000000   0.155859   0.000000   0.000000   0.000000   0.000241
     6  N    0.208129   0.000000   0.225310  -0.042202   0.069764   0.005625
     7  N    6.850866   0.000000  -0.048185   0.003639  -0.025789  -0.100346
     8  N    0.000000   6.710779   0.000000   0.000000   0.000000  -0.001825
     9  C   -0.048185   0.000000   5.267123   0.210673  -0.088890  -0.000048
    10  C    0.003639   0.000000   0.210673   5.213023  -0.064376   0.000000
    11  C   -0.025789   0.000000  -0.088890  -0.064376   4.441599   0.000218
    12  C   -0.100346  -0.001825  -0.000048   0.000000   0.000218   5.237428
    13  C    0.453222  -0.000055   0.003619  -0.000258  -0.004674   0.269600
    14  C    0.002113   0.005102   0.000000   0.000000  -0.000002   0.314170
    15  C   -0.000073   0.020438   0.000000   0.000000   0.000000  -0.161229
    16  C    0.000261  -0.054967   0.000000   0.000000   0.000000  -0.074990
    17  H    0.001491   0.000000   0.359958  -0.037895   0.002154  -0.000006
    18  H    0.003155   0.000000   0.359949  -0.028146   0.002959  -0.000014
    19  H   -0.000060   0.000000  -0.043504   0.343151   0.001441   0.000000
    20  H   -0.000018   0.000000  -0.034493   0.361658   0.001482   0.000000
    21  H   -0.045727  -0.000003  -0.000153  -0.000003   0.003846  -0.044786
    22  H    0.002505  -0.000005  -0.000001   0.000000   0.000001  -0.029479
    23  H    0.000000  -0.003390   0.000000   0.000000   0.000000   0.004986
              13         14         15         16         17         18
     1  O   -0.000030   0.000000   0.000000   0.000000   0.001045   0.001236
     2  O   -0.021112  -0.081000   0.277999  -0.088917   0.000000   0.000000
     3  O   -0.006474   0.000000   0.000000   0.000000   0.000009  -0.000015
     4  O    0.000000   0.000368  -0.092308   0.012857   0.000000   0.000000
     5  O    0.000002  -0.000062  -0.066101   0.003146   0.000000   0.000000
     6  N   -0.082393  -0.000112   0.000000  -0.000001  -0.043329  -0.033131
     7  N    0.453222   0.002113  -0.000073   0.000261   0.001491   0.003155
     8  N   -0.000055   0.005102   0.020438  -0.054967   0.000000   0.000000
     9  C    0.003619   0.000000   0.000000   0.000000   0.359958   0.359949
    10  C   -0.000258   0.000000   0.000000   0.000000  -0.037895  -0.028146
    11  C   -0.004674  -0.000002   0.000000   0.000000   0.002154   0.002959
    12  C    0.269600   0.314170  -0.161229  -0.074990  -0.000006  -0.000014
    13  C    5.127056  -0.065968  -0.000835   0.007132   0.000152  -0.000017
    14  C   -0.065968   5.415292  -0.073798   0.323323  -0.000001   0.000001
    15  C   -0.000835  -0.073798   5.251683   0.214127   0.000000   0.000000
    16  C    0.007132   0.323323   0.214127   5.474320   0.000000   0.000000
    17  H    0.000152  -0.000001   0.000000   0.000000   0.510530  -0.031751
    18  H   -0.000017   0.000001   0.000000   0.000000  -0.031751   0.484397
    19  H    0.000002   0.000000   0.000000   0.000000   0.003148  -0.002983
    20  H    0.000002   0.000000   0.000000   0.000000  -0.002857   0.000835
    21  H    0.297500   0.004265  -0.000115  -0.000009   0.000004   0.000008
    22  H   -0.001332   0.384965   0.005143  -0.026133   0.000000   0.000002
    23  H   -0.000016  -0.023547  -0.033310   0.378468   0.000000   0.000000
              19         20         21         22         23
     1  O   -0.031545  -0.023310   0.000080   0.000000   0.000000
     2  O    0.000000   0.000000   0.000213   0.001636   0.001662
     3  O    0.000025  -0.000024   0.034690   0.000000   0.000000
     4  O    0.000000   0.000000   0.000000   0.000000   0.004853
     5  O    0.000000   0.000000   0.000000   0.000000   0.000017
     6  N    0.001421   0.001899  -0.010934  -0.000016   0.000000
     7  N   -0.000060  -0.000018  -0.045727   0.002505   0.000000
     8  N    0.000000   0.000000  -0.000003  -0.000005  -0.003390
     9  C   -0.043504  -0.034493  -0.000153  -0.000001   0.000000
    10  C    0.343151   0.361658  -0.000003   0.000000   0.000000
    11  C    0.001441   0.001482   0.003846   0.000001   0.000000
    12  C    0.000000   0.000000  -0.044786  -0.029479   0.004986
    13  C    0.000002   0.000002   0.297500  -0.001332  -0.000016
    14  C    0.000000   0.000000   0.004265   0.384965  -0.023547
    15  C    0.000000   0.000000  -0.000115   0.005143  -0.033310
    16  C    0.000000   0.000000  -0.000009  -0.026133   0.378468
    17  H    0.003148  -0.002857   0.000004   0.000000   0.000000
    18  H   -0.002983   0.000835   0.000008   0.000002   0.000000
    19  H    0.528559  -0.034783   0.000000   0.000000   0.000000
    20  H   -0.034783   0.492387   0.000000   0.000000   0.000000
    21  H    0.000000   0.000000   0.481842   0.000039   0.000000
    22  H    0.000000   0.000000   0.000039   0.442599  -0.000933
    23  H    0.000000   0.000000   0.000000  -0.000933   0.432594
 Mulliken charges:
               1
     1  O   -0.490602
     2  O   -0.505574
     3  O   -0.482483
     4  O   -0.303525
     5  O   -0.279890
     6  N   -0.523700
     7  N   -0.304897
     8  N    0.000173
     9  C   -0.182573
    10  C   -0.184580
    11  C    0.943390
    12  C    0.312651
    13  C    0.024876
    14  C   -0.205108
    15  C    0.658377
    16  C   -0.168617
    17  H    0.237348
    18  H    0.243516
    19  H    0.235129
    20  H    0.237221
    21  H    0.279239
    22  H    0.221008
    23  H    0.238617
 Sum of Mulliken charges =   0.00000
 Mulliken charges with hydrogens summed into heavy atoms:
               1
     1  O   -0.490602
     2  O   -0.505574
     3  O   -0.482483
     4  O   -0.303525
     5  O   -0.279890
     6  N   -0.523700
     7  N   -0.304897
     8  N    0.000173
     9  C    0.298292
    10  C    0.287770
    11  C    0.943390
    12  C    0.312651
    13  C    0.304116
    14  C    0.015901
    15  C    0.658377
    16  C    0.070000
 Electronic spatial extent (au):  <R**2>=           5582.8281
 Charge=              0.0000 electrons
 Dipole moment (field-independent basis, Debye):
    X=              6.4212    Y=             -6.3813    Z=             -0.2067  Tot=              9.0551
 Quadrupole moment (field-independent basis, Debye-Ang):
   XX=            -95.2645   YY=            -93.6769   ZZ=            -88.0752
   XY=             -6.2772   XZ=             -1.4349   YZ=             -0.4236
 Traceless Quadrupole moment (field-independent basis, Debye-Ang):
   XX=             -2.9256   YY=             -1.3380   ZZ=              4.2637
   XY=             -6.2772   XZ=             -1.4349   YZ=             -0.4236
 Octapole moment (field-independent basis, Debye-Ang**2):
  XXX=            236.6826  YYY=            -19.3174  ZZZ=             -0.0565  XYY=            -10.4380
  XXY=            -94.1386  XXZ=             -5.5103  XZZ=              1.0555  YZZ=              9.3426
  YYZ=             -0.3766  XYZ=             -1.6425
 Hexadecapole moment (field-independent basis, Debye-Ang**3):
 XXXX=          -6431.6302 YYYY=           -710.6369 ZZZZ=            -89.0499 XXXY=           -191.8068
 XXXZ=            -27.2889 YYYX=              0.2188 YYYZ=              0.1786 ZZZX=              0.5794
 ZZZY=              0.0134 XXYY=          -1189.4088 XXZZ=           -981.3670 YYZZ=           -134.3203
 XXYZ=             -5.1300 YYXZ=             -3.3753 ZZXY=            -15.6609
 N-N= 1.030627911276D+03 E-N=-4.034691179629D+03  KE= 8.377464606744D+02
 1\1\GINC-NODE036\FOpt\RB3LYP\3-21G\C8H7N3O5\SUPERCOMPUTO1\06-Jul-2020\
 0\\# opt b3lyp/3-21g geom=connectivity\\Title Card Required\\0,1\O,11.
 8139655607,3.4854072742,-7.944627379\O,5.6213523297,4.6481297837,-6.24
 65092328\O,9.6701012394,2.6870464654,-7.5956092456\O,2.4010099852,5.81
 48986322,-5.3444150879\O,3.1650249011,3.6960404263,-5.8422321148\N,10.
 2447317709,4.9429596256,-7.2246591123\N,9.0422067403,5.5535081708,-6.8
 767532668\N,3.3106699036,4.9599841677,-5.6803047894\C,11.4034589967,5.
 8105805497,-7.4880178734\C,12.5235917664,4.7463662361,-7.5964297199\C,
 10.4722800692,3.6078901024,-7.5834408895\C,6.7532962017,5.4591556997,-
 6.3753751409\C,7.9789066645,4.8143299887,-6.7492513755\C,6.4210292349,
 6.7699248456,-6.0987789975\C,4.5938629842,5.5011827395,-5.8849541418\C
 ,5.0347848068,6.7937663345,-5.7849766076\H,11.2620851046,6.3645731389,
 -8.4213305553\H,11.5588487898,6.5033464245,-6.6610161581\H,13.02942382
 97,4.6003057066,-6.6395636868\H,13.2430969608,4.9525067586,-8.38594496
 63\H,7.9543915852,3.7445556341,-6.9115702292\H,7.1043634088,7.59945288
 77,-6.1236772931\H,4.4225171656,7.6350884077,-5.5185621366\\Version=ES
 64L-G09RevD.01\State=1-A\HF=-844.5549254\RMSD=3.225e-09\RMSF=2.108e-05
 \Dipole=2.8385268,2.1452776,-0.1799096\Quadrupole=-0.0911874,-1.826043
 7,1.9172311,4.0432883,2.4599585,-2.2346392\PG=C01 [X(C8H7N3O5)]\\@


 THERE'S NOTHING SO GREAT AS THE GREAT OUTDOORS.

                                       -- ZIGGY
 Job cpu time:       0 days  2 hours 15 minutes 26.4 seconds.
 File lengths (MBytes):  RWF=     18 Int=      0 D2E=      0 Chk=      3 Scr=      1
 Normal termination of Gaussian 09 at Mon Jul  6 10:48:06 2020.
