 Entering Gaussian System, Link 0=g09
 Input=gatifloxacina.gjf
 Output=gatifloxacina.log
 Initial command:
 /usr/local/cluster_programs/g09/l1.exe "/tmp/scratch/63943.prometeo/Gau-15271.inp" -scrdir="/tmp/scratch/63943.prometeo/"
 Entering Link 1 = /usr/local/cluster_programs/g09/l1.exe PID=     15272.
  
 Copyright (c) 1988,1990,1992,1993,1995,1998,2003,2009,2013,
            Gaussian, Inc.  All Rights Reserved.
  
 This is part of the Gaussian(R) 09 program.  It is based on
 the Gaussian(R) 03 system (copyright 2003, Gaussian, Inc.),
 the Gaussian(R) 98 system (copyright 1998, Gaussian, Inc.),
 the Gaussian(R) 94 system (copyright 1995, Gaussian, Inc.),
 the Gaussian 92(TM) system (copyright 1992, Gaussian, Inc.),
 the Gaussian 90(TM) system (copyright 1990, Gaussian, Inc.),
 the Gaussian 88(TM) system (copyright 1988, Gaussian, Inc.),
 the Gaussian 86(TM) system (copyright 1986, Carnegie Mellon
 University), and the Gaussian 82(TM) system (copyright 1983,
 Carnegie Mellon University). Gaussian is a federally registered
 trademark of Gaussian, Inc.
  
 This software contains proprietary and confidential information,
 including trade secrets, belonging to Gaussian, Inc.
  
 This software is provided under written license and may be
 used, copied, transmitted, or stored only in accord with that
 written license.
  
 The following legend is applicable only to US Government
 contracts under FAR:
  
                    RESTRICTED RIGHTS LEGEND
  
 Use, reproduction and disclosure by the US Government is
 subject to restrictions as set forth in subparagraphs (a)
 and (c) of the Commercial Computer Software - Restricted
 Rights clause in FAR 52.227-19.
  
 Gaussian, Inc.
 340 Quinnipiac St., Bldg. 40, Wallingford CT 06492
  
  
 ---------------------------------------------------------------
 Warning -- This program may not be used in any manner that
 competes with the business of Gaussian, Inc. or will provide
 assistance to any competitor of Gaussian, Inc.  The licensee
 of this program is prohibited from giving any competitor of
 Gaussian, Inc. access to this program.  By using this program,
 the user acknowledges that Gaussian, Inc. is engaged in the
 business of creating and licensing software in the field of
 computational chemistry and represents and warrants to the
 licensee that it is not a competitor of Gaussian, Inc. and that
 it will not use this program in any manner prohibited above.
 ---------------------------------------------------------------
  

 Cite this work as:
 Gaussian 09, Revision D.01,
 M. J. Frisch, G. W. Trucks, H. B. Schlegel, G. E. Scuseria, 
 M. A. Robb, J. R. Cheeseman, G. Scalmani, V. Barone, B. Mennucci, 
 G. A. Petersson, H. Nakatsuji, M. Caricato, X. Li, H. P. Hratchian, 
 A. F. Izmaylov, J. Bloino, G. Zheng, J. L. Sonnenberg, M. Hada, 
 M. Ehara, K. Toyota, R. Fukuda, J. Hasegawa, M. Ishida, T. Nakajima, 
 Y. Honda, O. Kitao, H. Nakai, T. Vreven, J. A. Montgomery, Jr., 
 J. E. Peralta, F. Ogliaro, M. Bearpark, J. J. Heyd, E. Brothers, 
 K. N. Kudin, V. N. Staroverov, T. Keith, R. Kobayashi, J. Normand, 
 K. Raghavachari, A. Rendell, J. C. Burant, S. S. Iyengar, J. Tomasi, 
 M. Cossi, N. Rega, J. M. Millam, M. Klene, J. E. Knox, J. B. Cross, 
 V. Bakken, C. Adamo, J. Jaramillo, R. Gomperts, R. E. Stratmann, 
 O. Yazyev, A. J. Austin, R. Cammi, C. Pomelli, J. W. Ochterski, 
 R. L. Martin, K. Morokuma, V. G. Zakrzewski, G. A. Voth, 
 P. Salvador, J. J. Dannenberg, S. Dapprich, A. D. Daniels, 
 O. Farkas, J. B. Foresman, J. V. Ortiz, J. Cioslowski, 
 and D. J. Fox, Gaussian, Inc., Wallingford CT, 2013.
 
 ******************************************
 Gaussian 09:  ES64L-G09RevD.01 24-Apr-2013
                 6-Jul-2020 
 ******************************************
 %nprocshared=20
 Will use up to   20 processors via shared memory.
 -----------------------------------
 # opt b3lyp/3-21g geom=connectivity
 -----------------------------------
 1/14=-1,18=20,19=15,26=3,38=1,57=2/1,3;
 2/9=110,12=2,17=6,18=5,40=1/2;
 3/5=5,11=2,16=1,25=1,30=1,71=1,74=-5/1,2,3;
 4//1;
 5/5=2,38=5/2;
 6/7=2,8=2,9=2,10=2,28=1/1;
 7//1,2,3,16;
 1/14=-1,18=20,19=15,26=3/3(2);
 2/9=110/2;
 99//99;
 2/9=110/2;
 3/5=5,11=2,16=1,25=1,30=1,71=1,74=-5/1,2,3;
 4/5=5,16=3,69=1/1;
 5/5=2,38=5/2;
 7//1,2,3,16;
 1/14=-1,18=20,19=15,26=3/3(-5);
 2/9=110/2;
 6/7=2,8=2,9=2,10=2,19=2,28=1/1;
 99/9=1/99;
 -------------------
 Title Card Required
 -------------------
 Symbolic Z-matrix:
 Charge =  0 Multiplicity = 1
 C                     10.7425   7.18349   6.53156 
 C                     10.565    8.61595   6.93443 
 C                     11.7884   8.20318   6.15676 
 H                     12.7423   8.16245   6.67783 
 H                     11.8395   8.48905   5.10732 
 H                     9.79185   9.17557   6.41225 
 H                     10.6656   8.863     7.99221 
 H                     10.965    6.46538   7.32429 
 N                     5.78051   7.48391   8.04054 
 C                     4.52642   6.8456    8.41617 
 C                     4.6017    6.47793   9.89649 
 N                     4.84504   7.69719   10.6707 
 C                     6.10851   8.6587    8.84736 
 C                     6.12404   8.32104   10.3375 
 H                     4.78277   7.52255   11.6813 
 H                     4.38758   5.94873   7.80125 
 H                     3.67141   7.52625   8.24911 
 H                     5.33833   9.44041   8.67465 
 H                     7.08514   9.05236   8.53809 
 H                     6.95763   7.60358   10.4961 
 H                     3.66244   6.01679   10.236 
 H                     5.40938   5.72636   10.0334 
 O                     7.74972   6.66804   1.96613 
 O                     9.76321   5.32582   0.85433 
 O                     11.7059   5.12824   1.99451 
 N                     9.87668   6.66158   5.47421 
 C                     7.79177   6.99386   6.7733 
 C                     8.47754   6.8205    5.54316 
 C                     7.7391    6.77737   4.33785 
 C                     10.453    6.22175   4.31331 
 C                     9.77767   6.07191   3.12011 
 C                     8.38177   6.51941   3.02764 
 C                     6.35606   6.9791    4.37976 
 C                     6.40231   7.25317   6.81283 
 C                     5.72604   7.22904   5.57346 
 C                     10.5205   5.48182   1.97568 
 H                     11.5236   6.00538   4.37477 
 H                     10.3641   4.89803   0.20254 
 F                     4.38436   7.51291   5.54707 
 C                     6.3427    9.56      11.1947 
 H                     5.5064    10.2637   11.0899 
 H                     7.27742   10.0653   10.9164 
 H                     6.42142   9.30386   12.2617 
 O                     8.45194   6.89177   7.98617 
 C                     8.50722   5.55274   8.532 
 H                     7.98922   5.53173   9.50121 
 H                     9.56533   5.28943   8.68996 
 H                     8.03499   4.83297   7.84995 
 H                     5.78396   6.98281   3.45386 
 

 GradGradGradGradGradGradGradGradGradGradGradGradGradGradGradGradGradGrad
 Berny optimization.
 Initialization pass.
                           ----------------------------
                           !    Initial Parameters    !
                           ! (Angstroms and Degrees)  !
 --------------------------                            --------------------------
 ! Name  Definition              Value          Derivative Info.                !
 --------------------------------------------------------------------------------
 ! R1    R(1,2)                  1.4986         estimate D2E/DX2                !
 ! R2    R(1,3)                  1.508          estimate D2E/DX2                !
 ! R3    R(1,8)                  1.0925         estimate D2E/DX2                !
 ! R4    R(1,26)                 1.4629         estimate D2E/DX2                !
 ! R5    R(2,3)                  1.5073         estimate D2E/DX2                !
 ! R6    R(2,6)                  1.0879         estimate D2E/DX2                !
 ! R7    R(2,7)                  1.0909         estimate D2E/DX2                !
 ! R8    R(3,4)                  1.0877         estimate D2E/DX2                !
 ! R9    R(3,5)                  1.0889         estimate D2E/DX2                !
 ! R10   R(9,10)                 1.4565         estimate D2E/DX2                !
 ! R11   R(9,13)                 1.4624         estimate D2E/DX2                !
 ! R12   R(9,34)                 1.3954         estimate D2E/DX2                !
 ! R13   R(10,11)                1.5272         estimate D2E/DX2                !
 ! R14   R(10,16)                1.0963         estimate D2E/DX2                !
 ! R15   R(10,17)                1.1055         estimate D2E/DX2                !
 ! R16   R(11,12)                1.4647         estimate D2E/DX2                !
 ! R17   R(11,21)                1.1001         estimate D2E/DX2                !
 ! R18   R(11,22)                1.1117         estimate D2E/DX2                !
 ! R19   R(12,14)                1.4615         estimate D2E/DX2                !
 ! R20   R(12,15)                1.0275         estimate D2E/DX2                !
 ! R21   R(13,14)                1.528          estimate D2E/DX2                !
 ! R22   R(13,18)                1.1109         estimate D2E/DX2                !
 ! R23   R(13,19)                1.0975         estimate D2E/DX2                !
 ! R24   R(14,20)                1.1112         estimate D2E/DX2                !
 ! R25   R(14,40)                1.5224         estimate D2E/DX2                !
 ! R26   R(23,32)                1.2443         estimate D2E/DX2                !
 ! R27   R(24,36)                1.3621         estimate D2E/DX2                !
 ! R28   R(24,38)                0.9843         estimate D2E/DX2                !
 ! R29   R(25,36)                1.2372         estimate D2E/DX2                !
 ! R30   R(26,28)                1.4098         estimate D2E/DX2                !
 ! R31   R(26,30)                1.3687         estimate D2E/DX2                !
 ! R32   R(27,28)                1.419          estimate D2E/DX2                !
 ! R33   R(27,34)                1.414          estimate D2E/DX2                !
 ! R34   R(27,44)                1.3847         estimate D2E/DX2                !
 ! R35   R(28,29)                1.4142         estimate D2E/DX2                !
 ! R36   R(29,32)                1.482          estimate D2E/DX2                !
 ! R37   R(29,33)                1.3983         estimate D2E/DX2                !
 ! R38   R(30,31)                1.3792         estimate D2E/DX2                !
 ! R39   R(30,37)                1.094          estimate D2E/DX2                !
 ! R40   R(31,32)                1.4688         estimate D2E/DX2                !
 ! R41   R(31,36)                1.4865         estimate D2E/DX2                !
 ! R42   R(33,35)                1.3727         estimate D2E/DX2                !
 ! R43   R(33,49)                1.0884         estimate D2E/DX2                !
 ! R44   R(34,35)                1.4121         estimate D2E/DX2                !
 ! R45   R(35,39)                1.3716         estimate D2E/DX2                !
 ! R46   R(40,41)                1.098          estimate D2E/DX2                !
 ! R47   R(40,42)                1.0984         estimate D2E/DX2                !
 ! R48   R(40,43)                1.1001         estimate D2E/DX2                !
 ! R49   R(44,45)                1.4471         estimate D2E/DX2                !
 ! R50   R(45,46)                1.0992         estimate D2E/DX2                !
 ! R51   R(45,47)                1.1018         estimate D2E/DX2                !
 ! R52   R(45,48)                1.0983         estimate D2E/DX2                !
 ! A1    A(2,1,8)              117.2162         estimate D2E/DX2                !
 ! A2    A(2,1,26)             117.7253         estimate D2E/DX2                !
 ! A3    A(3,1,8)              118.9165         estimate D2E/DX2                !
 ! A4    A(3,1,26)             118.1698         estimate D2E/DX2                !
 ! A5    A(8,1,26)             114.2352         estimate D2E/DX2                !
 ! A6    A(1,2,6)              116.5405         estimate D2E/DX2                !
 ! A7    A(1,2,7)              117.7894         estimate D2E/DX2                !
 ! A8    A(3,2,6)              118.0371         estimate D2E/DX2                !
 ! A9    A(3,2,7)              119.1733         estimate D2E/DX2                !
 ! A10   A(6,2,7)              114.4845         estimate D2E/DX2                !
 ! A11   A(1,3,4)              117.6361         estimate D2E/DX2                !
 ! A12   A(1,3,5)              116.7182         estimate D2E/DX2                !
 ! A13   A(2,3,4)              118.3534         estimate D2E/DX2                !
 ! A14   A(2,3,5)              117.6102         estimate D2E/DX2                !
 ! A15   A(4,3,5)              115.4916         estimate D2E/DX2                !
 ! A16   A(10,9,13)            113.7595         estimate D2E/DX2                !
 ! A17   A(10,9,34)            122.5566         estimate D2E/DX2                !
 ! A18   A(13,9,34)            121.2178         estimate D2E/DX2                !
 ! A19   A(9,10,11)            108.2441         estimate D2E/DX2                !
 ! A20   A(9,10,16)            108.8405         estimate D2E/DX2                !
 ! A21   A(9,10,17)            110.9238         estimate D2E/DX2                !
 ! A22   A(11,10,16)           110.671          estimate D2E/DX2                !
 ! A23   A(11,10,17)           109.4403         estimate D2E/DX2                !
 ! A24   A(16,10,17)           108.7222         estimate D2E/DX2                !
 ! A25   A(10,11,12)           108.6724         estimate D2E/DX2                !
 ! A26   A(10,11,21)           110.9774         estimate D2E/DX2                !
 ! A27   A(10,11,22)           108.5387         estimate D2E/DX2                !
 ! A28   A(12,11,21)           109.1279         estimate D2E/DX2                !
 ! A29   A(12,11,22)           112.1461         estimate D2E/DX2                !
 ! A30   A(21,11,22)           107.3923         estimate D2E/DX2                !
 ! A31   A(11,12,14)           112.3471         estimate D2E/DX2                !
 ! A32   A(11,12,15)           111.6142         estimate D2E/DX2                !
 ! A33   A(14,12,15)           110.4768         estimate D2E/DX2                !
 ! A34   A(9,13,14)            111.2719         estimate D2E/DX2                !
 ! A35   A(9,13,18)            108.9055         estimate D2E/DX2                !
 ! A36   A(9,13,19)            109.4066         estimate D2E/DX2                !
 ! A37   A(14,13,18)           108.3104         estimate D2E/DX2                !
 ! A38   A(14,13,19)           110.1845         estimate D2E/DX2                !
 ! A39   A(18,13,19)           108.708          estimate D2E/DX2                !
 ! A40   A(12,14,13)           107.9246         estimate D2E/DX2                !
 ! A41   A(12,14,20)           110.3861         estimate D2E/DX2                !
 ! A42   A(12,14,40)           110.164          estimate D2E/DX2                !
 ! A43   A(13,14,20)           106.8278         estimate D2E/DX2                !
 ! A44   A(13,14,40)           111.7609         estimate D2E/DX2                !
 ! A45   A(20,14,40)           109.7153         estimate D2E/DX2                !
 ! A46   A(36,24,38)           104.8038         estimate D2E/DX2                !
 ! A47   A(1,26,28)            120.7844         estimate D2E/DX2                !
 ! A48   A(1,26,30)            118.5868         estimate D2E/DX2                !
 ! A49   A(28,26,30)           119.7088         estimate D2E/DX2                !
 ! A50   A(28,27,34)           121.4347         estimate D2E/DX2                !
 ! A51   A(28,27,44)           121.3273         estimate D2E/DX2                !
 ! A52   A(34,27,44)           117.2278         estimate D2E/DX2                !
 ! A53   A(26,28,27)           122.3969         estimate D2E/DX2                !
 ! A54   A(26,28,29)           118.2349         estimate D2E/DX2                !
 ! A55   A(27,28,29)           119.3561         estimate D2E/DX2                !
 ! A56   A(28,29,32)           122.1668         estimate D2E/DX2                !
 ! A57   A(28,29,33)           119.1122         estimate D2E/DX2                !
 ! A58   A(32,29,33)           118.7205         estimate D2E/DX2                !
 ! A59   A(26,30,31)           124.2306         estimate D2E/DX2                !
 ! A60   A(26,30,37)           115.3399         estimate D2E/DX2                !
 ! A61   A(31,30,37)           120.4177         estimate D2E/DX2                !
 ! A62   A(30,31,32)           119.1247         estimate D2E/DX2                !
 ! A63   A(30,31,36)           117.6768         estimate D2E/DX2                !
 ! A64   A(32,31,36)           123.1881         estimate D2E/DX2                !
 ! A65   A(23,32,29)           120.8731         estimate D2E/DX2                !
 ! A66   A(23,32,31)           124.9479         estimate D2E/DX2                !
 ! A67   A(29,32,31)           114.1743         estimate D2E/DX2                !
 ! A68   A(29,33,35)           120.4167         estimate D2E/DX2                !
 ! A69   A(29,33,49)           119.6627         estimate D2E/DX2                !
 ! A70   A(35,33,49)           119.8612         estimate D2E/DX2                !
 ! A71   A(9,34,27)            119.5243         estimate D2E/DX2                !
 ! A72   A(9,34,35)            124.1688         estimate D2E/DX2                !
 ! A73   A(27,34,35)           116.2913         estimate D2E/DX2                !
 ! A74   A(33,35,34)           123.1303         estimate D2E/DX2                !
 ! A75   A(33,35,39)           118.0272         estimate D2E/DX2                !
 ! A76   A(34,35,39)           118.8037         estimate D2E/DX2                !
 ! A77   A(24,36,25)           120.832          estimate D2E/DX2                !
 ! A78   A(24,36,31)           113.6685         estimate D2E/DX2                !
 ! A79   A(25,36,31)           125.4888         estimate D2E/DX2                !
 ! A80   A(14,40,41)           111.0047         estimate D2E/DX2                !
 ! A81   A(14,40,42)           110.7294         estimate D2E/DX2                !
 ! A82   A(14,40,43)           111.5249         estimate D2E/DX2                !
 ! A83   A(41,40,42)           109.217          estimate D2E/DX2                !
 ! A84   A(41,40,43)           107.235          estimate D2E/DX2                !
 ! A85   A(42,40,43)           106.975          estimate D2E/DX2                !
 ! A86   A(27,44,45)           114.6351         estimate D2E/DX2                !
 ! A87   A(44,45,46)           109.4079         estimate D2E/DX2                !
 ! A88   A(44,45,47)           108.1747         estimate D2E/DX2                !
 ! A89   A(44,45,48)           110.8398         estimate D2E/DX2                !
 ! A90   A(46,45,47)           108.7604         estimate D2E/DX2                !
 ! A91   A(46,45,48)           109.4165         estimate D2E/DX2                !
 ! A92   A(47,45,48)           110.2026         estimate D2E/DX2                !
 ! D1    D(8,1,2,6)           -141.9791         estimate D2E/DX2                !
 ! D2    D(8,1,2,7)             -0.084          estimate D2E/DX2                !
 ! D3    D(26,1,2,6)             0.3706         estimate D2E/DX2                !
 ! D4    D(26,1,2,7)           142.2657         estimate D2E/DX2                !
 ! D5    D(8,1,3,4)              1.7286         estimate D2E/DX2                !
 ! D6    D(8,1,3,5)            145.5733         estimate D2E/DX2                !
 ! D7    D(26,1,3,4)          -144.143          estimate D2E/DX2                !
 ! D8    D(26,1,3,5)            -0.2983         estimate D2E/DX2                !
 ! D9    D(2,1,26,28)          -51.1956         estimate D2E/DX2                !
 ! D10   D(2,1,26,30)          117.7958         estimate D2E/DX2                !
 ! D11   D(3,1,26,28)         -120.3452         estimate D2E/DX2                !
 ! D12   D(3,1,26,30)           48.6462         estimate D2E/DX2                !
 ! D13   D(8,1,26,28)           92.2408         estimate D2E/DX2                !
 ! D14   D(8,1,26,30)          -98.7677         estimate D2E/DX2                !
 ! D15   D(6,2,3,4)            146.6978         estimate D2E/DX2                !
 ! D16   D(6,2,3,5)              0.1715         estimate D2E/DX2                !
 ! D17   D(7,2,3,4)              0.0749         estimate D2E/DX2                !
 ! D18   D(7,2,3,5)           -146.4515         estimate D2E/DX2                !
 ! D19   D(13,9,10,11)         -56.5944         estimate D2E/DX2                !
 ! D20   D(13,9,10,16)        -176.9394         estimate D2E/DX2                !
 ! D21   D(13,9,10,17)          63.486          estimate D2E/DX2                !
 ! D22   D(34,9,10,11)         141.0567         estimate D2E/DX2                !
 ! D23   D(34,9,10,16)          20.7117         estimate D2E/DX2                !
 ! D24   D(34,9,10,17)         -98.8629         estimate D2E/DX2                !
 ! D25   D(10,9,13,14)          55.2796         estimate D2E/DX2                !
 ! D26   D(10,9,13,18)         -64.0408         estimate D2E/DX2                !
 ! D27   D(10,9,13,19)         177.2667         estimate D2E/DX2                !
 ! D28   D(34,9,13,14)        -142.1085         estimate D2E/DX2                !
 ! D29   D(34,9,13,18)          98.571          estimate D2E/DX2                !
 ! D30   D(34,9,13,19)         -20.1215         estimate D2E/DX2                !
 ! D31   D(10,9,34,27)        -133.8143         estimate D2E/DX2                !
 ! D32   D(10,9,34,35)          44.6949         estimate D2E/DX2                !
 ! D33   D(13,9,34,27)          65.1215         estimate D2E/DX2                !
 ! D34   D(13,9,34,35)        -116.3693         estimate D2E/DX2                !
 ! D35   D(9,10,11,12)          58.3746         estimate D2E/DX2                !
 ! D36   D(9,10,11,21)         178.3752         estimate D2E/DX2                !
 ! D37   D(9,10,11,22)         -63.8352         estimate D2E/DX2                !
 ! D38   D(16,10,11,12)        177.5702         estimate D2E/DX2                !
 ! D39   D(16,10,11,21)        -62.4292         estimate D2E/DX2                !
 ! D40   D(16,10,11,22)         55.3604         estimate D2E/DX2                !
 ! D41   D(17,10,11,12)        -62.63           estimate D2E/DX2                !
 ! D42   D(17,10,11,21)         57.3705         estimate D2E/DX2                !
 ! D43   D(17,10,11,22)        175.1601         estimate D2E/DX2                !
 ! D44   D(10,11,12,14)        -62.6653         estimate D2E/DX2                !
 ! D45   D(10,11,12,15)        172.6039         estimate D2E/DX2                !
 ! D46   D(21,11,12,14)        176.1913         estimate D2E/DX2                !
 ! D47   D(21,11,12,15)         51.4605         estimate D2E/DX2                !
 ! D48   D(22,11,12,14)         57.327          estimate D2E/DX2                !
 ! D49   D(22,11,12,15)        -67.4037         estimate D2E/DX2                !
 ! D50   D(11,12,14,13)         59.2268         estimate D2E/DX2                !
 ! D51   D(11,12,14,20)        -57.1838         estimate D2E/DX2                !
 ! D52   D(11,12,14,40)       -178.506          estimate D2E/DX2                !
 ! D53   D(15,12,14,13)       -175.4184         estimate D2E/DX2                !
 ! D54   D(15,12,14,20)         68.171          estimate D2E/DX2                !
 ! D55   D(15,12,14,40)        -53.1512         estimate D2E/DX2                !
 ! D56   D(9,13,14,12)         -53.6882         estimate D2E/DX2                !
 ! D57   D(9,13,14,20)          65.0183         estimate D2E/DX2                !
 ! D58   D(9,13,14,40)        -174.9677         estimate D2E/DX2                !
 ! D59   D(18,13,14,12)         65.9864         estimate D2E/DX2                !
 ! D60   D(18,13,14,20)       -175.3071         estimate D2E/DX2                !
 ! D61   D(18,13,14,40)        -55.2931         estimate D2E/DX2                !
 ! D62   D(19,13,14,12)       -175.223          estimate D2E/DX2                !
 ! D63   D(19,13,14,20)        -56.5164         estimate D2E/DX2                !
 ! D64   D(19,13,14,40)         63.4976         estimate D2E/DX2                !
 ! D65   D(12,14,40,41)        -55.6256         estimate D2E/DX2                !
 ! D66   D(12,14,40,42)       -177.1117         estimate D2E/DX2                !
 ! D67   D(12,14,40,43)         63.8869         estimate D2E/DX2                !
 ! D68   D(13,14,40,41)         64.348          estimate D2E/DX2                !
 ! D69   D(13,14,40,42)        -57.1381         estimate D2E/DX2                !
 ! D70   D(13,14,40,43)       -176.1395         estimate D2E/DX2                !
 ! D71   D(20,14,40,41)       -177.347          estimate D2E/DX2                !
 ! D72   D(20,14,40,42)         61.167          estimate D2E/DX2                !
 ! D73   D(20,14,40,43)        -57.8345         estimate D2E/DX2                !
 ! D74   D(38,24,36,25)          1.1433         estimate D2E/DX2                !
 ! D75   D(38,24,36,31)       -177.7279         estimate D2E/DX2                !
 ! D76   D(1,26,28,27)         -24.8247         estimate D2E/DX2                !
 ! D77   D(1,26,28,29)         156.4476         estimate D2E/DX2                !
 ! D78   D(30,26,28,27)        166.3063         estimate D2E/DX2                !
 ! D79   D(30,26,28,29)        -12.4214         estimate D2E/DX2                !
 ! D80   D(1,26,30,31)        -160.5832         estimate D2E/DX2                !
 ! D81   D(1,26,30,37)          18.1676         estimate D2E/DX2                !
 ! D82   D(28,26,30,31)          8.5295         estimate D2E/DX2                !
 ! D83   D(28,26,30,37)       -172.7197         estimate D2E/DX2                !
 ! D84   D(34,27,28,26)        175.1093         estimate D2E/DX2                !
 ! D85   D(34,27,28,29)         -6.1767         estimate D2E/DX2                !
 ! D86   D(44,27,28,26)         -6.083          estimate D2E/DX2                !
 ! D87   D(44,27,28,29)        172.6309         estimate D2E/DX2                !
 ! D88   D(28,27,34,9)        -176.7833         estimate D2E/DX2                !
 ! D89   D(28,27,34,35)          4.5924         estimate D2E/DX2                !
 ! D90   D(44,27,34,9)           4.3621         estimate D2E/DX2                !
 ! D91   D(44,27,34,35)       -174.2622         estimate D2E/DX2                !
 ! D92   D(28,27,44,45)        -88.4324         estimate D2E/DX2                !
 ! D93   D(34,27,44,45)         90.4235         estimate D2E/DX2                !
 ! D94   D(26,28,29,32)          2.4487         estimate D2E/DX2                !
 ! D95   D(26,28,29,33)       -177.8043         estimate D2E/DX2                !
 ! D96   D(27,28,29,32)       -176.3188         estimate D2E/DX2                !
 ! D97   D(27,28,29,33)          3.4283         estimate D2E/DX2                !
 ! D98   D(28,29,32,23)       -169.9773         estimate D2E/DX2                !
 ! D99   D(28,29,32,31)         10.7803         estimate D2E/DX2                !
 ! D100  D(33,29,32,23)         10.2747         estimate D2E/DX2                !
 ! D101  D(33,29,32,31)       -168.9677         estimate D2E/DX2                !
 ! D102  D(28,29,33,35)          0.653          estimate D2E/DX2                !
 ! D103  D(28,29,33,49)        177.8469         estimate D2E/DX2                !
 ! D104  D(32,29,33,35)       -179.5911         estimate D2E/DX2                !
 ! D105  D(32,29,33,49)         -2.3972         estimate D2E/DX2                !
 ! D106  D(26,30,31,32)          5.8543         estimate D2E/DX2                !
 ! D107  D(26,30,31,36)       -175.2811         estimate D2E/DX2                !
 ! D108  D(37,30,31,32)       -172.8364         estimate D2E/DX2                !
 ! D109  D(37,30,31,36)          6.0281         estimate D2E/DX2                !
 ! D110  D(30,31,32,23)        166.059          estimate D2E/DX2                !
 ! D111  D(30,31,32,29)        -14.7344         estimate D2E/DX2                !
 ! D112  D(36,31,32,23)        -12.7395         estimate D2E/DX2                !
 ! D113  D(36,31,32,29)        166.4672         estimate D2E/DX2                !
 ! D114  D(30,31,36,24)        177.71           estimate D2E/DX2                !
 ! D115  D(30,31,36,25)         -1.0995         estimate D2E/DX2                !
 ! D116  D(32,31,36,24)         -3.4752         estimate D2E/DX2                !
 ! D117  D(32,31,36,25)        177.7152         estimate D2E/DX2                !
 ! D118  D(29,33,35,34)         -2.2234         estimate D2E/DX2                !
 ! D119  D(29,33,35,39)        175.4814         estimate D2E/DX2                !
 ! D120  D(49,33,35,34)       -179.4118         estimate D2E/DX2                !
 ! D121  D(49,33,35,39)         -1.7069         estimate D2E/DX2                !
 ! D122  D(9,34,35,33)        -178.9468         estimate D2E/DX2                !
 ! D123  D(9,34,35,39)           3.3653         estimate D2E/DX2                !
 ! D124  D(27,34,35,33)         -0.3936         estimate D2E/DX2                !
 ! D125  D(27,34,35,39)       -178.0815         estimate D2E/DX2                !
 ! D126  D(27,44,45,46)       -118.6144         estimate D2E/DX2                !
 ! D127  D(27,44,45,47)        123.0553         estimate D2E/DX2                !
 ! D128  D(27,44,45,48)          2.1323         estimate D2E/DX2                !
 --------------------------------------------------------------------------------
 Trust Radius=3.00D-01 FncErr=1.00D-07 GrdErr=1.00D-06
 Number of steps in this run=    282 maximum allowed number of steps=    294.
 GradGradGradGradGradGradGradGradGradGradGradGradGradGradGradGradGradGrad

                          Input orientation:                          
 ---------------------------------------------------------------------
 Center     Atomic      Atomic             Coordinates (Angstroms)
 Number     Number       Type             X           Y           Z
 ---------------------------------------------------------------------
      1          6           0       10.742500    7.183490    6.531560
      2          6           0       10.565000    8.615950    6.934430
      3          6           0       11.788400    8.203180    6.156760
      4          1           0       12.742300    8.162450    6.677830
      5          1           0       11.839500    8.489050    5.107320
      6          1           0        9.791850    9.175570    6.412250
      7          1           0       10.665600    8.863000    7.992210
      8          1           0       10.965000    6.465380    7.324290
      9          7           0        5.780510    7.483910    8.040540
     10          6           0        4.526420    6.845600    8.416170
     11          6           0        4.601700    6.477930    9.896490
     12          7           0        4.845040    7.697190   10.670700
     13          6           0        6.108510    8.658700    8.847360
     14          6           0        6.124040    8.321040   10.337500
     15          1           0        4.782770    7.522550   11.681300
     16          1           0        4.387580    5.948730    7.801250
     17          1           0        3.671410    7.526250    8.249110
     18          1           0        5.338330    9.440410    8.674650
     19          1           0        7.085140    9.052360    8.538090
     20          1           0        6.957630    7.603580   10.496100
     21          1           0        3.662440    6.016790   10.236000
     22          1           0        5.409380    5.726360   10.033400
     23          8           0        7.749720    6.668040    1.966130
     24          8           0        9.763210    5.325820    0.854331
     25          8           0       11.705900    5.128240    1.994510
     26          7           0        9.876680    6.661580    5.474210
     27          6           0        7.791770    6.993860    6.773300
     28          6           0        8.477540    6.820500    5.543160
     29          6           0        7.739100    6.777370    4.337850
     30          6           0       10.453000    6.221750    4.313310
     31          6           0        9.777670    6.071910    3.120110
     32          6           0        8.381770    6.519410    3.027640
     33          6           0        6.356060    6.979100    4.379760
     34          6           0        6.402310    7.253170    6.812830
     35          6           0        5.726040    7.229040    5.573460
     36          6           0       10.520500    5.481820    1.975680
     37          1           0       11.523600    6.005380    4.374770
     38          1           0       10.364100    4.898030    0.202544
     39          9           0        4.384360    7.512910    5.547070
     40          6           0        6.342700    9.560000   11.194700
     41          1           0        5.506400   10.263700   11.089900
     42          1           0        7.277420   10.065300   10.916400
     43          1           0        6.421420    9.303860   12.261700
     44          8           0        8.451940    6.891770    7.986170
     45          6           0        8.507220    5.552740    8.532000
     46          1           0        7.989220    5.531730    9.501210
     47          1           0        9.565330    5.289430    8.689960
     48          1           0        8.034990    4.832970    7.849950
     49          1           0        5.783960    6.982810    3.453860
 ---------------------------------------------------------------------
                    Distance matrix (angstroms):
                    1          2          3          4          5
     1  C    0.000000
     2  C    1.498583   0.000000
     3  C    1.508028   1.507268   0.000000
     4  H    2.231358   2.238781   1.087703   0.000000
     5  H    2.221791   2.231319   1.088879   1.840711   0.000000
     6  H    2.210510   1.087937   2.235404   3.130831   2.523296
     7  H    2.227143   1.090895   2.250537   2.555592   3.136952
     8  H    1.092524   2.221923   2.249681   2.541014   3.126491
     9  N    5.195057   5.039478   6.337249   7.126283   6.806280
    10  C    6.504274   6.464839   7.725562   8.500388   8.193324
    11  C    7.037755   6.993274   8.283159   8.914412   8.908788
    12  N    7.223323   6.893604   8.297104   8.861501   8.972219
    13  C    5.386375   4.849890   6.301427   6.997163   6.845504
    14  C    6.091746   5.602676   7.041126   7.564370   7.749161
    15  H    7.883728   7.560587   8.947774   9.423285   9.692718
    16  H    6.597102   6.784243   7.909427   8.715731   8.321154
    17  H    7.284763   7.101930   8.409619   9.227931   8.804290
    18  H    6.236311   5.570115   7.033769   7.774268   7.476372
    19  H    4.571118   3.856372   5.339709   6.021293   5.889944
    20  H    5.497208   5.169478   6.521176   6.953699   7.325003
    21  H    8.075352   8.080924   9.351563   9.985404   9.963922
    22  H    6.544332   6.673362   7.864787   8.424138   8.558339
    23  O    5.483208   6.033586   6.019051   7.025613   5.468954
    24  O    6.053171   6.959556   6.363674   7.129838   5.692532
    25  O    5.073166   6.153745   5.175557   5.675741   4.582846
    26  N    1.462882   2.534875   2.548937   3.451534   2.706828
    27  C    2.966683   3.216822   4.220856   5.087481   4.625495
    28  C    2.497747   3.084925   3.640069   4.612644   3.778464
    29  C    3.741351   4.255387   4.662424   5.694380   4.509458
    30  C    2.435033   3.551761   3.017891   3.820755   2.773713
    31  C    3.715441   4.651996   4.219786   5.081020   3.747361
    32  C    4.276857   4.942164   4.922560   5.919264   4.490039
    33  C    4.890079   5.188525   5.845205   6.889521   5.733882
    34  C    4.349853   4.381774   5.508440   6.406285   5.830883
    35  C    5.107338   5.214527   6.167771   7.163714   6.259337
    36  C    4.868368   5.866341   5.147310   5.850845   4.537660
    37  H    2.578721   3.779663   2.841818   3.382642   2.608647
    38  H    6.739656   7.692956   6.957394   7.631619   6.255322
    39  F    6.442335   6.429757   7.461099   8.459059   7.531623
    40  C    6.837464   6.071981   7.541714   7.956767   8.271514
    41  H    7.594926   6.750737   8.248948   8.731544   8.890939
    42  H    6.287959   5.363290   6.816935   7.172951   7.552652
    43  H    7.483462   6.783972   8.202820   8.510931   9.011363
    44  O    2.729039   2.923008   4.024736   4.661928   4.723838
    45  C    3.414320   4.021187   4.840737   5.308902   5.608426
    46  H    4.373521   4.768167   5.723265   6.122412   6.548028
    47  H    3.103528   3.891910   4.455231   4.732446   5.314577
    48  H    3.820171   4.642205   5.321024   5.883712   5.946700
    49  H    5.839489   6.135133   6.696885   7.759126   6.455405
                    6          7          8          9         10
     6  H    0.000000
     7  H    1.832324   0.000000
     8  H    3.090830   2.506858   0.000000
     9  N    4.647999   5.076252   5.331918   0.000000
    10  C    6.096656   6.476046   6.541566   1.456461   0.000000
    11  C    6.808439   6.788647   6.863524   2.417879   1.527153
    12  N    6.692603   6.512476   7.083059   2.799703   2.430973
    13  C    4.445662   4.641130   5.542192   1.462421   2.444640
    14  C    5.439728   5.140027   5.996482   2.468770   2.901865
    15  H    7.455618   7.072049   7.636826   3.775197   3.344406
    16  H    6.445770   6.924086   6.614898   2.086694   1.096257
    17  H    6.599553   7.125419   7.428135   2.119811   1.105548
    18  H    5.002243   5.401753   6.506435   2.103690   2.731126
    19  H    3.443930   3.626780   4.818619   2.099917   3.381080
    20  H    5.213615   4.648080   5.235923   2.725749   3.288073
    21  H    7.884708   7.885414   7.874431   3.385071   2.178341
    22  H    6.649498   6.452350   6.224977   2.682948   2.155864
    23  O    5.497816   7.045129   6.252118   6.437537   7.212781
    24  O    6.761055   8.017186   6.678568   8.494754   9.322827
    25  O    6.289745   7.141643   5.544676   8.787144   9.784272
    26  N    2.684634   3.436418   2.155396   4.903151   6.108541
    27  C    2.981700   3.638451   3.263782   2.427182   3.658348
    28  C    2.833564   3.867462   3.079934   3.735102   4.885301
    29  C    3.777338   5.125290   4.407107   4.247963   5.192173
    30  C    3.683439   4.533840   3.063903   6.108801   7.235123
    31  C    4.524499   5.684713   4.386308   6.494741   7.498165
    32  C    4.527593   5.946028   5.013701   5.729396   6.633730
    33  C    4.556331   5.930515   5.493313   3.739973   4.433735
    34  C    3.917278   4.707242   4.658363   1.395402   2.501155
    35  C    4.585124   5.737546   5.576315   2.480808   3.109198
    36  C    5.818752   6.903048   5.456427   7.953515   8.903303
    37  H    4.147335   4.689139   3.036989   6.971872   8.124002
    38  H    7.562094   8.745901   7.316894   9.440882  10.263293
    39  F    5.723104   6.874258   6.896423   2.857878   2.949105
    40  C    5.908997   5.424870   6.776607   3.817713   4.288015
    41  H    6.436577   6.178591   7.642210   4.135331   4.448888
    42  H    5.234629   4.634240   6.281793   4.144259   4.917888
    43  H    6.752209   6.036221   7.285541   4.641247   4.941879
    44  O    3.080313   2.964131   2.633508   2.736809   3.949271
    45  C    4.389591   3.988458   2.886548   3.377262   4.187084
    46  H    5.105753   4.531826   3.803413   3.289827   3.859346
    47  H    4.510139   3.803663   2.281883   4.422935   5.280837
    48  H    4.900175   4.814716   3.395002   3.485181   4.084281
    49  H    5.442743   6.925471   6.487768   4.613973   5.121011
                   11         12         13         14         15
    11  C    0.000000
    12  N    1.464654   0.000000
    13  C    2.850773   2.417732   0.000000
    14  C    2.430857   1.461524   1.527996   0.000000
    15  H    2.075949   1.027467   3.328609   2.059706   0.000000
    16  H    2.171619   3.391183   3.376371   3.882745   4.205695
    17  H    2.162932   2.696428   2.753144   3.317900   3.607640
    18  H    3.288131   2.695620   1.110890   2.152998   3.609263
    19  H    3.826279   3.376768   1.097462   2.167122   4.185809
    20  H    2.678997   2.121859   2.133688   1.111204   2.478161
    21  H    1.100057   2.100298   3.858921   3.373328   2.368828
    22  H    1.111732   2.146812   3.239459   2.708428   2.516846
    23  O    8.534447   9.233951   7.348988   8.686488  10.193994
    24  O   10.475170  11.232671   9.399651  10.589872  12.118319
    25  O   10.711331  11.355491   9.526619  10.533595  12.144808
    26  N    6.885906   7.307079   5.437438   6.362995   8.075714
    27  C    4.494112   4.936357   3.147504   4.152861   5.781181
    28  C    5.838747   6.344707   4.461952   5.547637   7.198678
    29  C    6.389947   7.023293   5.151107   6.402120   7.951191
    30  C    8.091677   8.604798   6.735795   7.709590   9.387804
    31  C    8.536676   9.164267   7.277061   8.396328  10.017353
    32  C    7.840392   8.503646   6.604045   7.859852   9.425758
    33  C    5.810616   6.509590   4.779308   6.111408   7.488863
    34  C    3.654060   4.183946   2.490210   3.693383   5.137847
    35  C    4.529558   5.193956   3.592859   4.903768   6.187214
    36  C    9.937991  10.617066   8.762318   9.864586  11.457975
    37  H    8.867096   9.332959   7.507820   8.370883  10.056141
    38  H   11.387446  12.160494  10.343381  11.507060  13.030779
    39  F    4.476145   5.147598   3.895824   5.160211   6.147162
    40  C    3.770356   2.446962   2.525310   1.522375   2.611774
    41  H    4.071212   2.683300   2.822684   2.172904   2.896083
    42  H    4.590089   3.403643   2.761485   2.169759   3.643340
    43  H    4.109925   2.756382   3.488820   2.181035   2.488996
    44  O    4.317978   4.567837   3.058652   3.604259   5.245444
    45  C    4.239209   4.752291   3.937036   4.074661   5.260206
    46  H    3.539327   3.992843   3.707092   3.458110   4.358610
    47  H    5.244604   5.657011   4.829737   4.873143   6.066945
    48  H    4.322233   5.131878   4.397995   4.691084   5.700002
    49  H    6.569637   7.312639   5.657189   7.020756   8.305689
                   16         17         18         19         20
    16  H    0.000000
    17  H    1.789427   0.000000
    18  H    3.722712   2.573658   0.000000
    19  H    4.177593   3.750476   1.794597   0.000000
    20  H    4.075034   3.981732   3.051845   2.439062   0.000000
    21  H    2.541352   2.495252   4.119174   4.879801   3.666583
    22  H    2.464958   3.073082   3.955429   4.013278   2.476918
    23  O    6.772741   7.539561   7.648861   7.022628   8.617600
    24  O    8.805969   9.830294   9.882652   8.949822  10.296756
    25  O    9.378126  10.460569  10.186512   8.920122  10.047408
    26  N    6.004456   6.852233   6.209777   4.784964   5.884522
    27  C    3.706412   4.408948   3.952228   2.802005   3.863520
    28  C    4.752549   5.560498   5.150223   3.986174   5.239748
    29  C    4.890242   5.692528   5.627016   4.821334   6.262377
    30  C    7.002113   7.948723   7.452577   6.099475   7.235603
    31  C    7.140120   8.106057   7.868129   6.744428   8.043871
    32  C    6.250327   7.103870   7.048652   6.201786   7.679941
    33  C    4.079604   4.741159   5.053702   4.703368   6.177498
    34  C    2.595703   3.097626   3.063078   2.584543   3.741343
    35  C    2.897191   3.386583   3.828558   3.736399   5.088170
    36  C    8.471598   9.510292   9.348878   8.222875   9.475941
    37  H    7.916234   8.887094   8.279249   6.805678   7.802115
    38  H    9.724356  10.791055  10.847496   9.873771  11.175032
    39  F    2.743720   2.794548   3.795665   4.313968   5.578785
    40  C    5.327220   4.466367   2.715458   2.804727   2.166509
    41  H    5.539489   4.350966   2.557242   3.235970   3.087864
    42  H    5.916205   5.154078   3.029191   2.592176   2.517734
    43  H    5.940456   5.179125   3.749488   3.790653   2.509147
    44  O    4.176427   4.829614   4.082173   2.615513   3.006557
    45  C    4.202646   5.230662   5.017588   3.777524   3.234944
    46  H    4.004443   4.918267   4.794601   3.760292   2.519235
    47  H    5.294674   6.319494   5.924390   4.509329   3.926516
    48  H    3.814563   5.143337   5.401908   4.379384   3.979836
    49  H    4.681773   5.268075   5.787489   5.641410   7.166310
                   21         22         23         24         25
    21  H    0.000000
    22  H    1.782469   0.000000
    23  O    9.247742   8.452502   0.000000
    24  O   11.212161  10.167181   2.663042   0.000000
    25  O   11.550278  10.228766   4.245368   2.261214   0.000000
    26  N    7.855392   6.451172   4.102515   4.810448   4.219655
    27  C    5.476890   4.232091   4.818383   6.457796   6.452735
    28  C    6.771550   5.547342   3.653506   5.086466   5.087138
    29  C    7.210119   6.242716   2.374262   4.282397   4.893503
    30  C    9.012878   7.642182   3.607790   3.639098   2.853481
    31  C    9.382695   8.185044   2.408240   2.385501   2.423955
    32  C    8.630478   7.651451   1.244340   2.838363   3.748673
    33  C    6.517452   5.867641   2.804399   5.174037   6.142954
    34  C    4.555614   3.699882   5.064424   7.107323   7.473928
    35  C    5.240923   4.716925   4.174067   6.495473   7.278803
    36  C   10.749515   9.545166   3.014039   1.362075   1.237153
    37  H    9.805712   8.335564   4.525797   3.994279   2.543275
    38  H   12.117513  11.039978   3.616373   0.984327   2.250459
    39  F    4.974496   4.936556   4.986240   7.465734   8.480111
    40  C    4.545023   4.112967   9.772903  11.685521  11.534639
    41  H    4.708033   4.659727  10.060041  12.135484  12.146311
    42  H    5.470051   4.805795   9.584977  11.396800  11.116929
    43  H    4.745552   4.334519  10.710308  12.534769  12.279117
    44  O    5.363454   3.847922   6.064986   7.418541   7.042605
    45  C    5.156632   3.446877   6.702861   7.783033   7.290441
    46  H    4.415453   2.641341   7.624040   8.829380   8.386123
    47  H    6.145193   4.389494   7.099781   7.838212   7.031150
    48  H    5.119947   3.529791   6.169943   7.222765   6.917293
    49  H    7.171573   6.708899   2.485283   5.033647   6.374834
                   26         27         28         29         30
    26  N    0.000000
    27  C    2.478890   0.000000
    28  C    1.409824   1.419006   0.000000
    29  C    2.423627   2.445620   1.414187   0.000000
    30  C    1.368680   3.705381   2.402806   2.770301   0.000000
    31  C    2.428848   4.259059   2.849894   2.477162   1.379220
    32  C    2.870657   3.821410   2.535285   1.481964   2.455920
    33  C    3.700460   2.791149   2.424733   1.398303   4.166883
    34  C    3.770030   1.414003   2.471001   2.852879   4.870269
    35  C    4.190426   2.400451   2.781829   2.404818   4.994673
    36  C    3.747806   5.722708   4.323501   3.872271   2.452869
    37  H    2.086076   4.544953   3.362743   3.862612   1.093973
    38  H    5.580157   7.360993   5.981403   5.246265   4.319553
    39  F    5.558386   3.658346   4.151333   3.641087   6.325950
    40  C    7.322149   5.313535   6.633423   7.530561   8.682857
    41  H    7.975625   5.877738   7.172839   7.920204   9.312807
    42  H    6.925236   5.183009   6.390675   7.368918   8.273934
    43  H    8.061668   6.110360   7.452079   8.420619   9.430267
    44  O    2.897035   1.384666   2.444183   3.719068   4.235926
    45  C    3.529168   2.383636   3.246731   4.436285   4.693717
    46  H    4.588659   3.101339   4.191127   5.317374   5.784518
    47  H    3.510097   3.118362   3.664671   4.948731   4.562044
    48  H    3.518491   2.426474   3.076915   4.025306   4.503699
    49  H    4.575517   3.879446   3.412754   2.155508   4.808097
                   31         32         33         34         35
    31  C    0.000000
    32  C    1.468790   0.000000
    33  C    3.757277   2.478517   0.000000
    34  C    5.140487   4.334089   2.448894   0.000000
    35  C    4.875816   3.746689   1.372703   1.412077   0.000000
    36  C    1.486514   2.599496   5.036269   6.595088   6.243688
    37  H    2.151016   3.456889   5.258481   5.807644   6.045321
    38  H    3.199076   3.813092   6.151778   8.058433   7.469401
    39  F    6.087233   4.828442   2.352693   2.396192   1.371635
    40  C    9.442711   8.950076   7.287292   4.952353   6.116534
    41  H    9.966564   9.342778   7.519076   5.306531   6.299882
    42  H    9.109366   8.719258   7.287057   5.051057   6.244851
    43  H   10.260535   9.841951   8.217893   5.822017   7.037115
    44  O    5.109625   4.972987   4.172114   2.389209   3.655879
    45  C    5.583201   5.590006   4.889079   3.205878   4.392938
    46  H    6.648969   6.560237   5.566987   3.564972   4.840461
    47  H    5.628552   5.914012   5.633136   4.169483   5.311761
    48  H    5.190693   5.120450   4.412131   3.098166   4.031725
    49  H    4.109848   2.673017   1.088395   3.426096   2.134640
                   36         37         38         39         40
    36  C    0.000000
    37  H    2.652538   0.000000
    38  H    1.873308   4.469691   0.000000
    39  F    7.384603   7.390242   8.435570   0.000000
    40  C   10.912190   9.272998  12.598933   6.318338   0.000000
    41  H   11.448868   9.971607  13.073721   6.288782   1.097987
    42  H   10.557572   8.792378  12.288815   6.611671   1.098399
    43  H   11.713781   9.955696  13.430536   7.241780   1.100133
    44  O    6.510982   4.823172   8.259309   4.783328   4.675790
    45  C    6.858838   5.156161   8.559000   5.454360   5.275723
    46  H    7.939992   6.244724   9.618047   5.705726   4.669678
    47  H    6.784609   4.792522   8.533901   6.454771   5.907354
    48  H    6.411382   5.061800   7.994486   5.080594   6.032911
    49  H    5.183898   5.894651   5.991247   2.573211   8.177695
                   41         42         43         44         45
    41  H    0.000000
    42  H    1.790524   0.000000
    43  H    1.769652   1.767020   0.000000
    44  O    5.447867   4.476275   5.312377   0.000000
    45  C    6.143364   5.249854   5.686134   1.447062   0.000000
    46  H    5.574932   4.802362   4.930240   2.087861   1.099151
    47  H    6.854049   5.744606   6.225524   2.074235   1.101762
    48  H    6.810571   6.111817   6.485060   2.105008   1.098300
    49  H    8.315671   8.211070   9.130809   5.260061   5.937066
                   46         47         48         49
    46  H    0.000000
    47  H    1.789122   0.000000
    48  H    1.793605   1.804415   0.000000
    49  H    6.598428   6.677053   5.386516   0.000000
 Stoichiometry    C19H22FN3O4
 Framework group  C1[X(C19H22FN3O4)]
 Deg. of freedom   141
 Full point group                 C1      NOp   1
 Largest Abelian subgroup         C1      NOp   1
 Largest concise Abelian subgroup C1      NOp   1
                         Standard orientation:                         
 ---------------------------------------------------------------------
 Center     Atomic      Atomic             Coordinates (Angstroms)
 Number     Number       Type             X           Y           Z
 ---------------------------------------------------------------------
      1          6           0        1.250315    2.599475    0.017285
      2          6           0        0.521138    2.897189   -1.257635
      3          6           0        1.897064    3.469361   -1.031126
      4          1           0        1.985988    4.532622   -0.819784
      5          1           0        2.723680    3.031628   -1.588579
      6          1           0        0.418950    2.074894   -1.962614
      7          1           0       -0.344922    3.558472   -1.205707
      8          1           0        0.871542    3.065343    0.930031
      9          7           0       -2.689724   -0.786217   -0.025069
     10          6           0       -3.528970   -1.766745    0.649847
     11          6           0       -4.624160   -1.018521    1.406760
     12          7           0       -5.388548   -0.213638    0.451205
     13          6           0       -3.426358    0.099174   -0.926251
     14          6           0       -4.567758    0.806918   -0.197501
     15          1           0       -6.212916    0.214024    0.890764
     16          1           0       -2.908105   -2.347754    1.341753
     17          1           0       -3.991518   -2.458377   -0.078116
     18          1           0       -3.860638   -0.506277   -1.750208
     19          1           0       -2.737076    0.836655   -1.356870
     20          1           0       -4.101843    1.469871    0.562888
     21          1           0       -5.304006   -1.720635    1.911707
     22          1           0       -4.146996   -0.394266    2.193251
     23          8           0        3.510258   -2.325646   -0.820225
     24          8           0        5.777912   -1.412256    0.235833
     25          8           0        5.918645    0.773459    0.797914
     26          7           0        1.767438    1.243974    0.204968
     27          6           0       -0.477013    0.192290    0.168956
     28          6           0        0.932932    0.121987    0.025113
     29          6           0        1.537300   -1.118688   -0.283742
     30          6           0        3.119062    1.070520    0.332674
     31          6           0        3.769759   -0.128855    0.131821
     32          6           0        3.007939   -1.280324   -0.369270
     33          6           0        0.724421   -2.233393   -0.511580
     34          6           0       -1.303598   -0.919220   -0.115134
     35          6           0       -0.642282   -2.121238   -0.449462
     36          6           0        5.228395   -0.178748    0.413982
     37          1           0        3.684136    1.970529    0.592391
     38          1           0        6.722733   -1.305856    0.490572
     39          9           0       -1.394640   -3.221402   -0.773468
     40          6           0       -5.417488    1.636175   -1.150349
     41          1           0       -5.926018    0.995739   -1.883025
     42          1           0       -4.799618    2.372885   -1.681362
     43          1           0       -6.195767    2.197698   -0.612514
     44          8           0       -1.098337    1.345760    0.617024
     45          6           0       -1.231668    1.439494    2.054878
     46          1           0       -2.297173    1.486859    2.320564
     47          1           0       -0.742358    2.369636    2.385472
     48          1           0       -0.770759    0.572721    2.547351
     49          1           0        1.178280   -3.184268   -0.784442
 ---------------------------------------------------------------------
 Rotational constants (GHZ):      0.3735238      0.1124137      0.0942782
 Standard basis: 3-21G (6D, 7F)
 There are   287 symmetry adapted cartesian basis functions of A   symmetry.
 There are   287 symmetry adapted basis functions of A   symmetry.
   287 basis functions,   471 primitive gaussians,   287 cartesian basis functions
    99 alpha electrons       99 beta electrons
       nuclear repulsion energy      2603.4678798407 Hartrees.
 NAtoms=   49 NActive=   49 NUniq=   49 SFac= 1.00D+00 NAtFMM=   60 NAOKFM=F Big=F
 Integral buffers will be    131072 words long.
 Raffenetti 2 integral format.
 Two-electron integral symmetry is turned on.
 One-electron integrals computed using PRISM.
 PrsmSu:  requested number of processors reduced to:   9 ShMem   1 Linda.
 NBasis=   287 RedAO= T EigKep=  1.17D-03  NBF=   287
 NBsUse=   287 1.00D-06 EigRej= -1.00D+00 NBFU=   287
 ExpMin= 1.83D-01 ExpMax= 4.14D+02 ExpMxC= 4.14D+02 IAcc=1 IRadAn=         1 AccDes= 0.00D+00
 Harris functional with IExCor=  402 and IRadAn=       1 diagonalized for initial guess.
 HarFok:  IExCor=  402 AccDes= 0.00D+00 IRadAn=         1 IDoV= 1 UseB2=F ITyADJ=14
 ICtDFT=  3500011 ScaDFX=  1.000000  1.000000  1.000000  1.000000
 FoFCou: FMM=F IPFlag=           0 FMFlag=      100000 FMFlg1=           0
         NFxFlg=           0 DoJE=T BraDBF=F KetDBF=T FulRan=T
         wScrn=  0.000000 ICntrl=     500 IOpCl=  0 I1Cent=   200000004 NGrid=           0
         NMat0=    1 NMatS0=      1 NMatT0=    0 NMatD0=    1 NMtDS0=    0 NMtDT0=    0
 Petite list used in FoFCou.
 Requested convergence on RMS density matrix=1.00D-08 within 128 cycles.
 Requested convergence on MAX density matrix=1.00D-06.
 Requested convergence on             energy=1.00D-06.
 No special actions if energy rises.
 Integral accuracy reduced to 1.0D-05 until final iterations.
 EnCoef did     2 forward-backward iterations
 Initial convergence to 1.0D-05 achieved.  Increase integral accuracy.
 SCF Done:  E(RB3LYP) =  -1295.05604840     A.U. after   17 cycles
            NFock= 17  Conv=0.59D-08     -V/T= 2.0082

 **********************************************************************

            Population analysis using the SCF density.

 **********************************************************************

 Orbital symmetries:
       Occupied  (A) (A) (A) (A) (A) (A) (A) (A) (A) (A) (A) (A)
                 (A) (A) (A) (A) (A) (A) (A) (A) (A) (A) (A) (A)
                 (A) (A) (A) (A) (A) (A) (A) (A) (A) (A) (A) (A)
                 (A) (A) (A) (A) (A) (A) (A) (A) (A) (A) (A) (A)
                 (A) (A) (A) (A) (A) (A) (A) (A) (A) (A) (A) (A)
                 (A) (A) (A) (A) (A) (A) (A) (A) (A) (A) (A) (A)
                 (A) (A) (A) (A) (A) (A) (A) (A) (A) (A) (A) (A)
                 (A) (A) (A) (A) (A) (A) (A) (A) (A) (A) (A) (A)
                 (A) (A) (A)
       Virtual   (A) (A) (A) (A) (A) (A) (A) (A) (A) (A) (A) (A)
                 (A) (A) (A) (A) (A) (A) (A) (A) (A) (A) (A) (A)
                 (A) (A) (A) (A) (A) (A) (A) (A) (A) (A) (A) (A)
                 (A) (A) (A) (A) (A) (A) (A) (A) (A) (A) (A) (A)
                 (A) (A) (A) (A) (A) (A) (A) (A) (A) (A) (A) (A)
                 (A) (A) (A) (A) (A) (A) (A) (A) (A) (A) (A) (A)
                 (A) (A) (A) (A) (A) (A) (A) (A) (A) (A) (A) (A)
                 (A) (A) (A) (A) (A) (A) (A) (A) (A) (A) (A) (A)
                 (A) (A) (A) (A) (A) (A) (A) (A) (A) (A) (A) (A)
                 (A) (A) (A) (A) (A) (A) (A) (A) (A) (A) (A) (A)
                 (A) (A) (A) (A) (A) (A) (A) (A) (A) (A) (A) (A)
                 (A) (A) (A) (A) (A) (A) (A) (A) (A) (A) (A) (A)
                 (A) (A) (A) (A) (A) (A) (A) (A) (A) (A) (A) (A)
                 (A) (A) (A) (A) (A) (A) (A) (A) (A) (A) (A) (A)
                 (A) (A) (A) (A) (A) (A) (A) (A) (A) (A) (A) (A)
                 (A) (A) (A) (A) (A) (A) (A) (A)
 The electronic state is 1-A.
 Alpha  occ. eigenvalues --  -24.56905 -19.07242 -19.06579 -19.01209 -18.99779
 Alpha  occ. eigenvalues --  -14.33733 -14.26689 -14.23551 -10.25021 -10.21431
 Alpha  occ. eigenvalues --  -10.20233 -10.19900 -10.19856 -10.19620 -10.19036
 Alpha  occ. eigenvalues --  -10.18843 -10.18623 -10.15549 -10.15436 -10.15328
 Alpha  occ. eigenvalues --  -10.15155 -10.14820 -10.14796 -10.14342 -10.14223
 Alpha  occ. eigenvalues --  -10.13737 -10.11884  -1.20619  -1.09540  -1.07079
 Alpha  occ. eigenvalues --   -1.01838  -1.00690  -0.99960  -0.96028  -0.90971
 Alpha  occ. eigenvalues --   -0.89138  -0.86396  -0.80710  -0.78992  -0.77866
 Alpha  occ. eigenvalues --   -0.76690  -0.71800  -0.71211  -0.69321  -0.67764
 Alpha  occ. eigenvalues --   -0.65246  -0.64456  -0.62646  -0.62076  -0.60294
 Alpha  occ. eigenvalues --   -0.59323  -0.57368  -0.55572  -0.54863  -0.54335
 Alpha  occ. eigenvalues --   -0.52719  -0.52019  -0.50551  -0.49706  -0.48987
 Alpha  occ. eigenvalues --   -0.48295  -0.48026  -0.47083  -0.46766  -0.46389
 Alpha  occ. eigenvalues --   -0.45684  -0.44967  -0.44567  -0.44308  -0.44045
 Alpha  occ. eigenvalues --   -0.43148  -0.42411  -0.41720  -0.41475  -0.40452
 Alpha  occ. eigenvalues --   -0.40011  -0.38905  -0.38691  -0.38421  -0.37409
 Alpha  occ. eigenvalues --   -0.37197  -0.37059  -0.36467  -0.36124  -0.34898
 Alpha  occ. eigenvalues --   -0.34507  -0.34145  -0.33420  -0.32756  -0.31901
 Alpha  occ. eigenvalues --   -0.28768  -0.27807  -0.27422  -0.25902  -0.25614
 Alpha  occ. eigenvalues --   -0.22284  -0.21736  -0.21411  -0.19945
 Alpha virt. eigenvalues --   -0.04611  -0.03486   0.00508   0.04018   0.06784
 Alpha virt. eigenvalues --    0.08658   0.09449   0.10323   0.11059   0.11443
 Alpha virt. eigenvalues --    0.11737   0.12107   0.12861   0.13512   0.14193
 Alpha virt. eigenvalues --    0.14608   0.14826   0.15288   0.15691   0.16368
 Alpha virt. eigenvalues --    0.16795   0.17131   0.17765   0.18088   0.18698
 Alpha virt. eigenvalues --    0.19445   0.19859   0.20322   0.20698   0.21479
 Alpha virt. eigenvalues --    0.22055   0.23180   0.23635   0.24204   0.24306
 Alpha virt. eigenvalues --    0.25320   0.25692   0.26331   0.26732   0.27391
 Alpha virt. eigenvalues --    0.27819   0.28254   0.29074   0.30002   0.30742
 Alpha virt. eigenvalues --    0.31526   0.32226   0.33527   0.36355   0.38706
 Alpha virt. eigenvalues --    0.41206   0.42241   0.44327   0.44907   0.50734
 Alpha virt. eigenvalues --    0.55142   0.57874   0.61935   0.62686   0.64420
 Alpha virt. eigenvalues --    0.65246   0.65831   0.67308   0.67715   0.68272
 Alpha virt. eigenvalues --    0.69120   0.69259   0.69885   0.70350   0.70692
 Alpha virt. eigenvalues --    0.71709   0.72088   0.72283   0.72743   0.73246
 Alpha virt. eigenvalues --    0.73963   0.74127   0.74912   0.75603   0.75772
 Alpha virt. eigenvalues --    0.76380   0.76863   0.77448   0.78114   0.78498
 Alpha virt. eigenvalues --    0.79512   0.81060   0.81491   0.82729   0.83832
 Alpha virt. eigenvalues --    0.84547   0.85093   0.87082   0.87377   0.89378
 Alpha virt. eigenvalues --    0.89636   0.90463   0.90832   0.92642   0.93588
 Alpha virt. eigenvalues --    0.94657   0.96056   0.96988   0.98474   0.99024
 Alpha virt. eigenvalues --    0.99590   1.00273   1.00802   1.02219   1.03692
 Alpha virt. eigenvalues --    1.03790   1.04693   1.04982   1.05971   1.06705
 Alpha virt. eigenvalues --    1.07838   1.07958   1.08615   1.09515   1.09813
 Alpha virt. eigenvalues --    1.11113   1.12078   1.13538   1.14776   1.14972
 Alpha virt. eigenvalues --    1.15996   1.17826   1.18990   1.22589   1.25532
 Alpha virt. eigenvalues --    1.29921   1.33177   1.33970   1.35063   1.35661
 Alpha virt. eigenvalues --    1.37317   1.39454   1.41339   1.42851   1.44304
 Alpha virt. eigenvalues --    1.45198   1.46440   1.49893   1.50505   1.53655
 Alpha virt. eigenvalues --    1.55387   1.55831   1.58682   1.59926   1.61593
 Alpha virt. eigenvalues --    1.62442   1.65325   1.66180   1.66805   1.69436
 Alpha virt. eigenvalues --    1.69683   1.70578   1.71969   1.73035   1.76892
 Alpha virt. eigenvalues --    1.78475   1.79950   1.83737   1.86170   1.86983
 Alpha virt. eigenvalues --    1.89336   1.90712   1.92804   1.94541   1.95090
 Alpha virt. eigenvalues --    1.99204   2.01128   2.01362   2.04003   2.06643
 Alpha virt. eigenvalues --    2.11067   2.14435   2.22995   2.41222   2.55611
 Alpha virt. eigenvalues --    2.74564   2.82429   2.94274   3.15004   3.42225
 Alpha virt. eigenvalues --    3.47086   3.54726   4.03739
          Condensed to atoms (all electrons):
               1          2          3          4          5          6
     1  C    5.412492   0.128880   0.087689  -0.024495  -0.026981  -0.028806
     2  C    0.128880   5.495239   0.094607  -0.025263  -0.021723   0.379747
     3  C    0.087689   0.094607   5.585344   0.376129   0.371095  -0.025292
     4  H   -0.024495  -0.025263   0.376129   0.477100  -0.016565   0.001297
     5  H   -0.026981  -0.021723   0.371095  -0.016565   0.466059  -0.003587
     6  H   -0.028806   0.379747  -0.025292   0.001297  -0.003587   0.463847
     7  H   -0.024253   0.379722  -0.025419  -0.003153   0.001243  -0.017154
     8  H    0.381367  -0.030443  -0.028633  -0.001874   0.001293   0.001453
     9  N   -0.000001   0.000000   0.000000   0.000000   0.000000  -0.000002
    10  C    0.000000   0.000000   0.000000   0.000000   0.000000   0.000000
    11  C    0.000000   0.000000   0.000000   0.000000   0.000000   0.000000
    12  N    0.000000   0.000000   0.000000   0.000000   0.000000   0.000000
    13  C    0.000001  -0.000038   0.000000   0.000000   0.000000   0.000001
    14  C    0.000000   0.000000   0.000000   0.000000   0.000000   0.000000
    15  H    0.000000   0.000000   0.000000   0.000000   0.000000   0.000000
    16  H    0.000000   0.000000   0.000000   0.000000   0.000000   0.000000
    17  H    0.000000   0.000000   0.000000   0.000000   0.000000   0.000000
    18  H    0.000000   0.000000   0.000000   0.000000   0.000000   0.000000
    19  H   -0.000006   0.000306   0.000000   0.000000   0.000000   0.000164
    20  H    0.000000   0.000000   0.000000   0.000000   0.000000   0.000000
    21  H    0.000000   0.000000   0.000000   0.000000   0.000000   0.000000
    22  H    0.000000   0.000000   0.000000   0.000000   0.000000   0.000000
    23  O    0.000000   0.000000   0.000000   0.000000   0.000000   0.000000
    24  O    0.000000   0.000000   0.000000   0.000000   0.000000   0.000000
    25  O    0.000001   0.000000   0.000000   0.000000  -0.000001   0.000000
    26  N    0.259754  -0.034683  -0.036324   0.001159  -0.002784  -0.003178
    27  C   -0.001222  -0.004526   0.000841  -0.000005  -0.000029   0.000938
    28  C   -0.062436  -0.003381   0.003128  -0.000045   0.000023   0.004085
    29  C    0.002027   0.000533  -0.000116   0.000000   0.000007  -0.000060
    30  C   -0.062201   0.004146  -0.009037   0.000134   0.004032   0.000061
    31  C    0.002574  -0.000218   0.000715  -0.000006  -0.000060   0.000008
    32  C    0.000023   0.000001  -0.000014   0.000000  -0.000006  -0.000006
    33  C   -0.000071   0.000006   0.000001   0.000000   0.000000  -0.000003
    34  C    0.000498  -0.000307   0.000018   0.000000   0.000000  -0.000024
    35  C   -0.000013  -0.000005   0.000000   0.000000   0.000000   0.000002
    36  C   -0.000044   0.000001  -0.000003   0.000000   0.000014   0.000000
    37  H   -0.000783  -0.000152   0.000739   0.000032   0.000180   0.000015
    38  H    0.000000   0.000000   0.000000   0.000000   0.000000   0.000000
    39  F    0.000000   0.000000   0.000000   0.000000   0.000000   0.000000
    40  C    0.000000   0.000000   0.000000   0.000000   0.000000   0.000000
    41  H    0.000000   0.000000   0.000000   0.000000   0.000000   0.000000
    42  H    0.000000   0.000000   0.000000   0.000000   0.000000   0.000000
    43  H    0.000000   0.000000   0.000000   0.000000   0.000000   0.000000
    44  O    0.011343  -0.000156   0.000876  -0.000001  -0.000004  -0.000497
    45  C   -0.002971   0.000315   0.000017  -0.000001   0.000000   0.000027
    46  H    0.000139  -0.000014   0.000001   0.000000   0.000000  -0.000001
    47  H   -0.001069   0.000129  -0.000148   0.000001   0.000001  -0.000001
    48  H    0.000236   0.000006   0.000005   0.000000   0.000000  -0.000001
    49  H    0.000001   0.000000   0.000000   0.000000   0.000000   0.000000
               7          8          9         10         11         12
     1  C   -0.024253   0.381367  -0.000001   0.000000   0.000000   0.000000
     2  C    0.379722  -0.030443   0.000000   0.000000   0.000000   0.000000
     3  C   -0.025419  -0.028633   0.000000   0.000000   0.000000   0.000000
     4  H   -0.003153  -0.001874   0.000000   0.000000   0.000000   0.000000
     5  H    0.001243   0.001293   0.000000   0.000000   0.000000   0.000000
     6  H   -0.017154   0.001453  -0.000002   0.000000   0.000000   0.000000
     7  H    0.473943  -0.002368   0.000000   0.000000   0.000000   0.000000
     8  H   -0.002368   0.485687   0.000000   0.000000   0.000000   0.000000
     9  N    0.000000   0.000000   7.223161   0.272791  -0.065846  -0.003480
    10  C    0.000000   0.000000   0.272791   5.234489   0.241659  -0.061333
    11  C    0.000000   0.000000  -0.065846   0.241659   5.287998   0.289348
    12  N    0.000000   0.000000  -0.003480  -0.061333   0.289348   6.992212
    13  C   -0.000004   0.000000   0.270499  -0.074987  -0.007821  -0.065507
    14  C    0.000000   0.000000  -0.046722  -0.006333  -0.081916   0.266114
    15  H    0.000000   0.000000  -0.000191   0.004918  -0.042270   0.325610
    16  H    0.000000   0.000000  -0.030632   0.363780  -0.033795   0.002263
    17  H    0.000000   0.000000  -0.046997   0.342042  -0.056777   0.002853
    18  H    0.000000   0.000000  -0.051021  -0.003964  -0.000276   0.002212
    19  H    0.000091   0.000000  -0.027959   0.003373  -0.000061   0.002457
    20  H    0.000002   0.000000   0.000701  -0.000194  -0.005535  -0.053309
    21  H    0.000000   0.000000   0.002825  -0.031455   0.361481  -0.030990
    22  H    0.000000   0.000000   0.001729  -0.058621   0.318813  -0.050618
    23  O    0.000000   0.000000   0.000000   0.000000   0.000000   0.000000
    24  O    0.000000   0.000000   0.000000   0.000000   0.000000   0.000000
    25  O    0.000000   0.000000   0.000000   0.000000   0.000000   0.000000
    26  N    0.001148  -0.035635  -0.000003   0.000000   0.000000   0.000000
    27  C   -0.000120   0.000296  -0.092802   0.002374   0.000141   0.000007
    28  C    0.000078   0.000839   0.004772  -0.000065   0.000000   0.000000
    29  C   -0.000005  -0.000122  -0.000444  -0.000017   0.000000   0.000000
    30  C   -0.000023   0.000453   0.000000   0.000000   0.000000   0.000000
    31  C    0.000001  -0.000110   0.000000   0.000000   0.000000   0.000000
    32  C    0.000000   0.000005   0.000000   0.000000   0.000000   0.000000
    33  C    0.000000   0.000001   0.004405   0.000404   0.000006   0.000000
    34  C   -0.000004  -0.000012   0.354646  -0.062979   0.002960  -0.000033
    35  C    0.000000   0.000000  -0.089958  -0.000504   0.000174  -0.000004
    36  C    0.000000   0.000001   0.000000   0.000000   0.000000   0.000000
    37  H    0.000002   0.000586   0.000000   0.000000   0.000000   0.000000
    38  H    0.000000   0.000000   0.000000   0.000000   0.000000   0.000000
    39  F    0.000000   0.000000  -0.002829   0.005906   0.000058   0.000000
    40  C    0.000000   0.000000   0.002412  -0.000104   0.004827  -0.053905
    41  H    0.000000   0.000000  -0.000029  -0.000016  -0.000014   0.003575
    42  H    0.000001   0.000000  -0.000002   0.000008  -0.000126   0.002589
    43  H    0.000000   0.000000  -0.000034   0.000003  -0.000044  -0.001284
    44  O    0.000875  -0.000350  -0.004946  -0.000038   0.000013   0.000002
    45  C   -0.000017  -0.000459   0.003960   0.000136  -0.000409   0.000019
    46  H   -0.000004  -0.000036   0.000489  -0.000069   0.000037  -0.000168
    47  H   -0.000010   0.005469   0.000046  -0.000002   0.000003   0.000000
    48  H    0.000003   0.000066  -0.000193   0.000000   0.000020   0.000000
    49  H    0.000000   0.000000  -0.000007   0.000000   0.000000   0.000000
              13         14         15         16         17         18
     1  C    0.000001   0.000000   0.000000   0.000000   0.000000   0.000000
     2  C   -0.000038   0.000000   0.000000   0.000000   0.000000   0.000000
     3  C    0.000000   0.000000   0.000000   0.000000   0.000000   0.000000
     4  H    0.000000   0.000000   0.000000   0.000000   0.000000   0.000000
     5  H    0.000000   0.000000   0.000000   0.000000   0.000000   0.000000
     6  H    0.000001   0.000000   0.000000   0.000000   0.000000   0.000000
     7  H   -0.000004   0.000000   0.000000   0.000000   0.000000   0.000000
     8  H    0.000000   0.000000   0.000000   0.000000   0.000000   0.000000
     9  N    0.270499  -0.046722  -0.000191  -0.030632  -0.046997  -0.051021
    10  C   -0.074987  -0.006333   0.004918   0.363780   0.342042  -0.003964
    11  C   -0.007821  -0.081916  -0.042270  -0.033795  -0.056777  -0.000276
    12  N   -0.065507   0.266114   0.325610   0.002263   0.002853   0.002212
    13  C    5.259281   0.238295   0.005767   0.003665  -0.001943   0.342825
    14  C    0.238295   5.368547  -0.048408  -0.000001  -0.000727  -0.065590
    15  H    0.005767  -0.048408   0.494623  -0.000098  -0.000188  -0.000221
    16  H    0.003665  -0.000001  -0.000098   0.523341  -0.026286  -0.000048
    17  H   -0.001943  -0.000727  -0.000188  -0.026286   0.568474   0.008667
    18  H    0.342825  -0.065590  -0.000221  -0.000048   0.008667   0.587173
    19  H    0.358360  -0.032666  -0.000106  -0.000059  -0.000062  -0.026647
    20  H   -0.063711   0.332898  -0.001951   0.000077   0.000235   0.005746
    21  H   -0.000104   0.004621  -0.004498  -0.001735   0.000424   0.000052
    22  H   -0.000218  -0.007396  -0.001513   0.001159   0.005297   0.000264
    23  O    0.000000   0.000000   0.000000   0.000000   0.000000   0.000000
    24  O    0.000000   0.000000   0.000000   0.000000   0.000000   0.000000
    25  O    0.000000   0.000000   0.000000   0.000000   0.000000   0.000000
    26  N    0.000001   0.000000   0.000000   0.000000   0.000000   0.000000
    27  C   -0.003566   0.000369   0.000000   0.000605  -0.000303  -0.000051
    28  C    0.000075  -0.000007   0.000000  -0.000003   0.000003   0.000023
    29  C   -0.000006   0.000000   0.000000  -0.000007  -0.000001  -0.000002
    30  C    0.000000   0.000000   0.000000   0.000000   0.000000   0.000000
    31  C    0.000000   0.000000   0.000000   0.000000   0.000000   0.000000
    32  C    0.000000   0.000000   0.000000   0.000000   0.000000   0.000000
    33  C   -0.000034   0.000001   0.000000  -0.000090  -0.000009  -0.000009
    34  C   -0.061966   0.002001   0.000004  -0.003129  -0.001169   0.000049
    35  C   -0.000221  -0.000141   0.000000  -0.000615   0.001804   0.001174
    36  C    0.000000   0.000000   0.000000   0.000000   0.000000   0.000000
    37  H    0.000000   0.000000   0.000000   0.000000   0.000000   0.000000
    38  H    0.000000   0.000000   0.000000   0.000000   0.000000   0.000000
    39  F   -0.000072   0.000000   0.000000   0.000586   0.001231  -0.000009
    40  C   -0.057466   0.266525  -0.004696   0.000001   0.000029   0.000769
    41  H   -0.005362  -0.040199  -0.000245   0.000000   0.000022   0.005011
    42  H   -0.003458  -0.040100  -0.000036   0.000000   0.000001   0.000196
    43  H    0.003975  -0.035608   0.004089   0.000000  -0.000001  -0.000123
    44  O    0.003004  -0.001248   0.000000  -0.000003  -0.000001   0.000081
    45  C   -0.000309  -0.000518   0.000000  -0.000036   0.000005   0.000009
    46  H   -0.000416   0.001023  -0.000010   0.000004   0.000006   0.000000
    47  H    0.000016  -0.000014   0.000000   0.000000   0.000000   0.000000
    48  H    0.000069  -0.000012   0.000000   0.000060  -0.000001   0.000000
    49  H    0.000001   0.000000   0.000000   0.000002   0.000000   0.000000
              19         20         21         22         23         24
     1  C   -0.000006   0.000000   0.000000   0.000000   0.000000   0.000000
     2  C    0.000306   0.000000   0.000000   0.000000   0.000000   0.000000
     3  C    0.000000   0.000000   0.000000   0.000000   0.000000   0.000000
     4  H    0.000000   0.000000   0.000000   0.000000   0.000000   0.000000
     5  H    0.000000   0.000000   0.000000   0.000000   0.000000   0.000000
     6  H    0.000164   0.000000   0.000000   0.000000   0.000000   0.000000
     7  H    0.000091   0.000002   0.000000   0.000000   0.000000   0.000000
     8  H    0.000000   0.000000   0.000000   0.000000   0.000000   0.000000
     9  N   -0.027959   0.000701   0.002825   0.001729   0.000000   0.000000
    10  C    0.003373  -0.000194  -0.031455  -0.058621   0.000000   0.000000
    11  C   -0.000061  -0.005535   0.361481   0.318813   0.000000   0.000000
    12  N    0.002457  -0.053309  -0.030990  -0.050618   0.000000   0.000000
    13  C    0.358360  -0.063711  -0.000104  -0.000218   0.000000   0.000000
    14  C   -0.032666   0.332898   0.004621  -0.007396   0.000000   0.000000
    15  H   -0.000106  -0.001951  -0.004498  -0.001513   0.000000   0.000000
    16  H   -0.000059   0.000077  -0.001735   0.001159   0.000000   0.000000
    17  H   -0.000062   0.000235   0.000424   0.005297   0.000000   0.000000
    18  H   -0.026647   0.005746   0.000052   0.000264   0.000000   0.000000
    19  H    0.513900   0.000473   0.000002   0.000076   0.000000   0.000000
    20  H    0.000473   0.636854  -0.000141   0.012926   0.000000   0.000000
    21  H    0.000002  -0.000141   0.539755  -0.034583   0.000000   0.000000
    22  H    0.000076   0.012926  -0.034583   0.648231   0.000000   0.000000
    23  O    0.000000   0.000000   0.000000   0.000000   8.071338  -0.001313
    24  O    0.000000   0.000000   0.000000   0.000000  -0.001313   8.237952
    25  O    0.000000   0.000000   0.000000   0.000000  -0.000001  -0.066616
    26  N    0.000000   0.000000   0.000000   0.000000  -0.000016  -0.000001
    27  C    0.001279   0.000117  -0.000004  -0.000137   0.000000   0.000000
    28  C   -0.000077   0.000013   0.000000   0.000000   0.003321  -0.000003
    29  C   -0.000008   0.000000   0.000000   0.000000  -0.123555   0.000113
    30  C    0.000000   0.000000   0.000000   0.000000   0.003313   0.002941
    31  C    0.000000   0.000000   0.000000   0.000000  -0.112173  -0.092041
    32  C    0.000000   0.000000   0.000000   0.000000   0.631526   0.002813
    33  C    0.000008   0.000000   0.000000   0.000000   0.004914   0.000000
    34  C   -0.006910  -0.000336  -0.000042   0.000012  -0.000004   0.000000
    35  C   -0.000223   0.000010   0.000003   0.000015   0.000595   0.000000
    36  C    0.000000   0.000000   0.000000   0.000000  -0.003999   0.216236
    37  H    0.000000   0.000000   0.000000   0.000000  -0.000003   0.000141
    38  H    0.000000   0.000000   0.000000   0.000000   0.000266   0.238111
    39  F   -0.000001   0.000000   0.000000   0.000000   0.000000   0.000000
    40  C   -0.002359  -0.046326  -0.000079  -0.000038   0.000000   0.000000
    41  H    0.000082   0.004451  -0.000001   0.000021   0.000000   0.000000
    42  H    0.003366   0.001238   0.000001   0.000012   0.000000   0.000000
    43  H   -0.000070  -0.004006  -0.000001  -0.000023   0.000000   0.000000
    44  O    0.005245   0.002713   0.000000  -0.000066   0.000000   0.000000
    45  C   -0.000199  -0.000454   0.000005  -0.000110   0.000000   0.000000
    46  H   -0.000057   0.002798  -0.000005   0.004435   0.000000   0.000000
    47  H   -0.000002   0.000127   0.000000   0.000007   0.000000   0.000000
    48  H    0.000035   0.000065  -0.000001   0.000062   0.000000   0.000000
    49  H    0.000000   0.000000   0.000000   0.000000   0.013081   0.000000
              25         26         27         28         29         30
     1  C    0.000001   0.259754  -0.001222  -0.062436   0.002027  -0.062201
     2  C    0.000000  -0.034683  -0.004526  -0.003381   0.000533   0.004146
     3  C    0.000000  -0.036324   0.000841   0.003128  -0.000116  -0.009037
     4  H    0.000000   0.001159  -0.000005  -0.000045   0.000000   0.000134
     5  H   -0.000001  -0.002784  -0.000029   0.000023   0.000007   0.004032
     6  H    0.000000  -0.003178   0.000938   0.004085  -0.000060   0.000061
     7  H    0.000000   0.001148  -0.000120   0.000078  -0.000005  -0.000023
     8  H    0.000000  -0.035635   0.000296   0.000839  -0.000122   0.000453
     9  N    0.000000  -0.000003  -0.092802   0.004772  -0.000444   0.000000
[...]
    34  C    0.000000   0.004277   0.137776  -0.048989  -0.042173  -0.000113
    35  C    0.000000  -0.000467   0.014332  -0.046664  -0.015242   0.000024
    36  C    0.518140   0.004619  -0.000003  -0.000565   0.005922  -0.095673
    37  H    0.022495  -0.032947  -0.000056   0.003013  -0.000483   0.365210
    38  H    0.004500   0.000000   0.000000   0.000000   0.000005  -0.000289
    39  F    0.000000   0.000000   0.002109  -0.000210   0.002913   0.000000
    40  C    0.000000   0.000000  -0.000005   0.000000   0.000000   0.000000
    41  H    0.000000   0.000000   0.000000   0.000000   0.000000   0.000000
    42  H    0.000000   0.000000  -0.000002   0.000000   0.000000   0.000000
    43  H    0.000000   0.000000   0.000000   0.000000   0.000000   0.000000
    44  O    0.000000  -0.005134   0.298634  -0.073094   0.003322  -0.000019
    45  C    0.000000   0.000082  -0.079254  -0.001259   0.000003   0.000016
    46  H    0.000000  -0.000006  -0.015317  -0.000878   0.000046   0.000000
    47  H    0.000000  -0.000010   0.004054  -0.000074   0.000002   0.000000
    48  H    0.000000   0.000213  -0.003404   0.004903  -0.000169  -0.000010
    49  H    0.000000  -0.000005  -0.000651   0.003973  -0.060325  -0.000071
              31         32         33         34         35         36
     1  C    0.002758   0.000005  -0.000071   0.000505  -0.000013  -0.000046
     2  C   -0.000249   0.000004   0.000002  -0.000121  -0.000002   0.000001
     3  C    0.000772  -0.000013   0.000001   0.000010   0.000000  -0.000011
     4  H   -0.000004   0.000000   0.000000   0.000000   0.000000   0.000000
     5  H   -0.000084  -0.000004   0.000000   0.000000   0.000000   0.000020
     6  H    0.000001  -0.000003   0.000001  -0.000014   0.000001   0.000000
     7  H    0.000001   0.000000   0.000000   0.000002   0.000000   0.000000
     8  H   -0.000075   0.000004   0.000001   0.000005   0.000000   0.000001
     9  N    0.000000   0.000000   0.004292   0.310657  -0.076608   0.000000
    10  C    0.000000   0.000000   0.000657  -0.059811  -0.000681   0.000000
    11  C    0.000000   0.000000   0.000008   0.003115   0.000415   0.000000
    12  N    0.000000   0.000000   0.000000  -0.000039  -0.000005   0.000000
    13  C    0.000000   0.000000  -0.000072  -0.062768   0.000016   0.000000
    14  C    0.000000   0.000000   0.000001   0.002593  -0.000113   0.000000
    15  H    0.000000   0.000000   0.000000   0.000006   0.000000   0.000000
    16  H    0.000000   0.000000  -0.000158  -0.002857  -0.001511   0.000000
    17  H    0.000000   0.000000  -0.000031  -0.001805   0.001557   0.000000
    18  H    0.000000   0.000000  -0.000013  -0.000835   0.001073   0.000000
    19  H    0.000000   0.000000   0.000022  -0.010783  -0.000235   0.000000
    20  H    0.000000   0.000000   0.000000  -0.000263   0.000002   0.000000
    21  H    0.000000   0.000000   0.000000  -0.000057   0.000002   0.000000
    22  H    0.000000   0.000000   0.000000  -0.000233  -0.000013   0.000000
    23  O   -0.114199   0.634932   0.003685  -0.000005   0.000747  -0.004008
    24  O   -0.093282   0.002033   0.000000   0.000000   0.000000   0.223039
    25  O   -0.114348   0.002007   0.000000   0.000000   0.000000   0.518140
    26  N   -0.015504  -0.035193   0.005774   0.004277  -0.000467   0.004619
    27  C   -0.000787   0.005919  -0.052539   0.137776   0.014332  -0.000003
    28  C   -0.024612   0.004152  -0.053480  -0.048989  -0.046664  -0.000565
    29  C   -0.169929  -0.023361   0.225077  -0.042173  -0.015242   0.005922
    30  C    0.292580  -0.026692  -0.001359  -0.000113   0.000024  -0.095673
    31  C    6.475128  -0.062192   0.016000   0.000004  -0.000009   0.061350
    32  C   -0.062192   5.192789  -0.076960  -0.000900   0.009403  -0.037806
    33  C    0.016000  -0.076960   5.732563  -0.071406   0.156547  -0.000001
    34  C    0.000004  -0.000900  -0.071406   5.654827   0.041472   0.000000
    35  C   -0.000009   0.009403   0.156547   0.041472   5.361660   0.000000
    36  C    0.061350  -0.037806  -0.000001   0.000000   0.000000   4.690907
    37  H   -0.060491   0.002947   0.000000   0.000000   0.000000   0.000777
    38  H    0.011929  -0.000066   0.000000   0.000000   0.000000  -0.028805
    39  F    0.000000  -0.000005  -0.059153  -0.063324   0.308323   0.000000
    40  C    0.000000   0.000000   0.000000  -0.000036   0.000001   0.000000
    41  H    0.000000   0.000000   0.000000  -0.000002   0.000000   0.000000
    42  H    0.000000   0.000000   0.000000   0.000000   0.000000   0.000000
    43  H    0.000000   0.000000   0.000000   0.000001   0.000000   0.000000
    44  O    0.000000   0.000000  -0.000268  -0.072355   0.002693   0.000000
    45  C   -0.000001   0.000001   0.000018  -0.005953   0.000199   0.000000
    46  H    0.000000   0.000000  -0.000017   0.007656  -0.000161   0.000000
    47  H    0.000000   0.000000   0.000000  -0.000028   0.000003   0.000000
    48  H    0.000000   0.000000  -0.000010  -0.000866   0.000007   0.000000
    49  H    0.001633   0.000594   0.370044   0.005387  -0.035034   0.000005
              37         38         39         40         41         42
     1  C   -0.001061   0.000000   0.000000   0.000000   0.000000   0.000000
     2  C   -0.000236   0.000000   0.000000   0.000000   0.000000   0.000000
     3  C    0.001356   0.000000   0.000000   0.000000   0.000000   0.000000
     4  H    0.000037   0.000000   0.000000   0.000000   0.000000   0.000000
     5  H    0.000911   0.000000   0.000000   0.000000   0.000000   0.000000
     6  H    0.000026   0.000000   0.000000   0.000000   0.000000   0.000000
     7  H    0.000001   0.000000   0.000000   0.000000   0.000000   0.000000
     8  H    0.000245   0.000000   0.000000   0.000000   0.000000   0.000000
     9  N    0.000000   0.000000  -0.003278   0.002126  -0.000030  -0.000007
    10  C    0.000000   0.000000   0.009717  -0.000064  -0.000019   0.000007
    11  C    0.000000   0.000000   0.000285   0.004453  -0.000022  -0.000117
    12  N    0.000000   0.000000   0.000000  -0.052586   0.004147   0.002514
    13  C    0.000000   0.000000  -0.000057  -0.060156  -0.006164  -0.002802
    14  C    0.000000   0.000000   0.000000   0.269174  -0.041351  -0.039085
    15  H    0.000000   0.000000   0.000000  -0.004001  -0.000278  -0.000040
    16  H    0.000000   0.000000   0.004508   0.000001   0.000000   0.000000
    17  H    0.000000   0.000000   0.002263   0.000010   0.000025   0.000001
    18  H    0.000000   0.000000  -0.000018  -0.000307   0.005654   0.000100
    19  H    0.000000   0.000000   0.000000  -0.002155   0.000108   0.003082
    20  H    0.000000   0.000000   0.000000  -0.046660   0.004556   0.001168
    21  H    0.000000   0.000000   0.000001  -0.000082  -0.000001   0.000001
    22  H    0.000000   0.000000  -0.000002  -0.000045   0.000021   0.000010
    23  O   -0.000002   0.000203   0.000000   0.000000   0.000000   0.000000
    24  O    0.000280   0.236986   0.000000   0.000000   0.000000   0.000000
    25  O    0.022495   0.004500   0.000000   0.000000   0.000000   0.000000
    26  N   -0.032947   0.000000   0.000000   0.000000   0.000000   0.000000
    27  C   -0.000056   0.000000   0.002109  -0.000005   0.000000  -0.000002
    28  C    0.003013   0.000000  -0.000210   0.000000   0.000000   0.000000
    29  C   -0.000483   0.000005   0.002913   0.000000   0.000000   0.000000
    30  C    0.365210  -0.000289   0.000000   0.000000   0.000000   0.000000
    31  C   -0.060491   0.011929   0.000000   0.000000   0.000000   0.000000
    32  C    0.002947  -0.000066  -0.000005   0.000000   0.000000   0.000000
    33  C    0.000000   0.000000  -0.059153   0.000000   0.000000   0.000000
    34  C    0.000000   0.000000  -0.063324  -0.000036  -0.000002   0.000000
    35  C    0.000000   0.000000   0.308323   0.000001   0.000000   0.000000
    36  C    0.000777  -0.028805   0.000000   0.000000   0.000000   0.000000
    37  H    0.433279  -0.000015   0.000000   0.000000   0.000000   0.000000
    38  H   -0.000015   0.416764   0.000000   0.000000   0.000000   0.000000
    39  F    0.000000   0.000000   9.087968   0.000000   0.000000   0.000000
    40  C    0.000000   0.000000   0.000000   5.358680   0.356250   0.356235
    41  H    0.000000   0.000000   0.000000   0.356250   0.520366  -0.022697
    42  H    0.000000   0.000000   0.000000   0.356235  -0.022697   0.540394
    43  H    0.000000   0.000000   0.000000   0.364579  -0.027638  -0.027157
    44  O    0.000000   0.000000   0.000000   0.000001   0.000000  -0.000008
    45  C    0.000000   0.000000   0.000000  -0.000005   0.000000   0.000001
    46  H    0.000000   0.000000   0.000000   0.000025   0.000001   0.000002
    47  H    0.000000   0.000000   0.000000   0.000000   0.000000   0.000004
    48  H    0.000000   0.000000   0.000000   0.000000   0.000000   0.000000
    49  H    0.000000   0.000000  -0.001818   0.000000   0.000000   0.000000
              43         44         45         46         47         48
     1  C    0.000000   0.010780  -0.000552   0.000094  -0.000058  -0.000271
     2  C    0.000000  -0.000727   0.000243  -0.000005  -0.000016   0.000028
     3  C    0.000000   0.000964  -0.000026   0.000001  -0.000007  -0.000011
     4  H    0.000000  -0.000001   0.000000   0.000000   0.000000   0.000000
     5  H    0.000000  -0.000005   0.000000   0.000000   0.000000   0.000000
     6  H    0.000000  -0.000216   0.000010   0.000000  -0.000001   0.000000
     7  H    0.000000   0.001103  -0.000059   0.000000   0.000019   0.000000
     8  H    0.000000   0.000913   0.000234   0.000019   0.000178   0.000612
     9  N   -0.000030  -0.003051  -0.006867   0.019276   0.000026   0.000152
    10  C    0.000004  -0.000013   0.000086  -0.000245  -0.000001  -0.000005
    11  C   -0.000032   0.000000  -0.000056  -0.000232   0.000000   0.000000
    12  N   -0.001404   0.000000   0.000014  -0.000120   0.000000   0.000000
    13  C    0.004076  -0.008801   0.000179  -0.001848   0.000149  -0.000007
    14  C   -0.036458  -0.000349   0.000065  -0.000151  -0.000044   0.000000
    15  H    0.004070   0.000000   0.000001  -0.000008   0.000000   0.000000
    16  H    0.000000   0.000000   0.000006  -0.000037   0.000000   0.000001
    17  H   -0.000001  -0.000001  -0.000008   0.000068   0.000000   0.000000
    18  H   -0.000090   0.000204  -0.000006   0.000099   0.000000   0.000001
    19  H   -0.000077   0.028138  -0.002140  -0.000588  -0.000267   0.000180
    20  H   -0.003623   0.000164  -0.000135   0.002924   0.000487   0.000033
    21  H    0.000000   0.000000   0.000000   0.000008   0.000000   0.000000
    22  H   -0.000021  -0.000003  -0.000319   0.002852   0.000003   0.000004
    23  O    0.000000   0.000000   0.000000   0.000000   0.000000   0.000000
    24  O    0.000000   0.000000   0.000000   0.000000   0.000000   0.000000
    25  O    0.000000   0.000000   0.000000   0.000000   0.000000   0.000000
    26  N    0.000000  -0.005134   0.000082  -0.000006  -0.000010   0.000213
    27  C    0.000000   0.298634  -0.079254  -0.015317   0.004054  -0.003404
    28  C    0.000000  -0.073094  -0.001259  -0.000878  -0.000074   0.004903
    29  C    0.000000   0.003322   0.000003   0.000046   0.000002  -0.000169
    30  C    0.000000  -0.000019   0.000016   0.000000   0.000000  -0.000010
    31  C    0.000000   0.000000  -0.000001   0.000000   0.000000   0.000000
    32  C    0.000000   0.000000   0.000001   0.000000   0.000000   0.000000
    33  C    0.000000  -0.000268   0.000018  -0.000017   0.000000  -0.000010
    34  C    0.000001  -0.072355  -0.005953   0.007656  -0.000028  -0.000866
    35  C    0.000000   0.002693   0.000199  -0.000161   0.000003   0.000007
    36  C    0.000000   0.000000   0.000000   0.000000   0.000000   0.000000
    37  H    0.000000   0.000000   0.000000   0.000000   0.000000   0.000000
    38  H    0.000000   0.000000   0.000000   0.000000   0.000000   0.000000
    39  F    0.000000   0.000000   0.000000   0.000000   0.000000   0.000000
    40  C    0.364579   0.000001  -0.000005   0.000025   0.000000   0.000000
    41  H   -0.027638   0.000000   0.000000   0.000001   0.000000   0.000000
    42  H   -0.027157  -0.000008   0.000001   0.000002   0.000004   0.000000
    43  H    0.538888   0.000000   0.000000  -0.000001   0.000000   0.000000
    44  O    0.000000   8.186057   0.241968  -0.029196  -0.022588  -0.030610
    45  C    0.000000   0.241968   5.208780   0.321318   0.359930   0.328969
    46  H   -0.000001  -0.029196   0.321318   0.531412  -0.027324  -0.036536
    47  H    0.000000  -0.022588   0.359930  -0.027324   0.508839  -0.030070
    48  H    0.000000  -0.030610   0.328969  -0.036536  -0.030070   0.568230
    49  H    0.000000   0.000000   0.000000   0.000000   0.000000   0.000000
              49
     1  C    0.000000
     2  C    0.000000
     3  C    0.000000
     4  H    0.000000
     5  H    0.000000
     6  H    0.000000
     7  H    0.000000
     8  H    0.000000
     9  N   -0.000007
    10  C   -0.000001
    11  C    0.000000
    12  N    0.000000
    13  C    0.000001
    14  C    0.000000
    15  H    0.000000
    16  H    0.000003
    17  H    0.000001
    18  H    0.000000
    19  H    0.000000
    20  H    0.000000
    21  H    0.000000
    22  H    0.000000
    23  O    0.019401
    24  O    0.000000
    25  O    0.000000
    26  N   -0.000005
    27  C   -0.000651
    28  C    0.003973
    29  C   -0.060325
    30  C   -0.000071
    31  C    0.001633
    32  C    0.000594
    33  C    0.370044
    34  C    0.005387
    35  C   -0.035034
    36  C    0.000005
    37  H    0.000000
    38  H    0.000000
    39  F   -0.001818
    40  C    0.000000
    41  H    0.000000
    42  H    0.000000
    43  H    0.000000
    44  O    0.000000
    45  C    0.000000
    46  H    0.000000
    47  H    0.000000
    48  H    0.000000
    49  H    0.456473
 Mulliken charges:
               1
     1  C   -0.035315
     2  C   -0.363714
     3  C   -0.408414
     4  H    0.217196
     5  H    0.227412
     6  H    0.225644
     7  H    0.214129
     8  H    0.226695
     9  N   -0.657059
    10  C   -0.185594
    11  C   -0.229510
    12  N   -0.559772
    13  C   -0.183274
    14  C   -0.080115
    15  H    0.269908
    16  H    0.208489
    17  H    0.209609
    18  H    0.197383
    19  H    0.229689
    20  H    0.169274
    21  H    0.199281
    22  H    0.166100
    23  O   -0.496871
    24  O   -0.540936
    25  O   -0.519184
    26  N   -0.843879
    27  C    0.277524
    28  C    0.361460
    29  C   -0.077206
    30  C    0.213370
    31  C   -0.206388
    32  C    0.408407
    33  C   -0.199152
    34  C    0.277444
    35  C    0.278281
    36  C    0.662136
    37  H    0.264713
    38  H    0.358789
    39  F   -0.290223
    40  C   -0.545431
    41  H    0.207076
    42  H    0.188396
    43  H    0.184915
    44  O   -0.528502
    45  C   -0.365481
    46  H    0.226869
    47  H    0.206795
    48  H    0.198638
    49  H    0.240397
 Sum of Mulliken charges =   0.00000
 Mulliken charges with hydrogens summed into heavy atoms:
               1
     1  C    0.191380
     2  C    0.076059
     3  C    0.036195
     9  N   -0.657059
    10  C    0.232504
    11  C    0.135871
    12  N   -0.289864
    13  C    0.243799
    14  C    0.089160
    23  O   -0.496871
    24  O   -0.182147
    25  O   -0.519184
    26  N   -0.843879
    27  C    0.277524
    28  C    0.361460
    29  C   -0.077206
    30  C    0.478083
    31  C   -0.206388
    32  C    0.408407
    33  C    0.041245
    34  C    0.277444
    35  C    0.278281
    36  C    0.662136
    39  F   -0.290223
    40  C    0.034956
    44  O   -0.528502
    45  C    0.266820
 Electronic spatial extent (au):  <R**2>=          11432.7029
 Charge=              0.0000 electrons
 Dipole moment (field-independent basis, Debye):
    X=             -5.5705    Y=              5.1564    Z=              2.1671  Tot=              7.8940
 Quadrupole moment (field-independent basis, Debye-Ang):
   XX=           -155.6482   YY=           -158.0469   ZZ=           -153.4540
   XY=              3.1423   XZ=             -7.0084   YZ=             -1.6588
 Traceless Quadrupole moment (field-independent basis, Debye-Ang):
   XX=              0.0682   YY=             -2.3305   ZZ=              2.2624
   XY=              3.1423   XZ=             -7.0084   YZ=             -1.6588
 Octapole moment (field-independent basis, Debye-Ang**2):
  XXX=            -79.0274  YYY=             37.7640  ZZZ=              7.1275  XYY=            -28.5376
  XXY=            -13.2743  XXZ=             27.6425  XZZ=             -0.7449  YZZ=             -0.6249
  YYZ=             15.5140  XYZ=             -3.3748
 Hexadecapole moment (field-independent basis, Debye-Ang**3):
 XXXX=          -9920.3733 YYYY=          -3047.1043 ZZZZ=           -605.4718 XXXY=           -451.1934
 XXXZ=           -250.6994 YYYX=            129.7735 YYYZ=             33.7281 ZZZX=              0.0389
 ZZZY=             42.9487 XXYY=          -2418.5359 XXZZ=          -1917.1710 YYZZ=           -616.3513
 XXYZ=            -87.3326 YYXZ=             -4.4474 ZZXY=            -12.0734
 N-N= 2.591755019346D+03 E-N=-8.204425998693D+03  KE= 1.284359675389D+03
 1\1\GINC-NODE038\FOpt\RB3LYP\3-21G\C19H22F1N3O4\SUPERCOMPUTO1\06-Jul-2
 020\0\\# opt b3lyp/3-21g geom=connectivity\\Title Card Required\\0,1\C
 ,10.8274851867,7.1618870456,6.4216459102\C,10.8304502369,8.6074352013,
 6.8536835169\C,11.9954075181,8.0626835703,6.033109937\H,12.9412763482,
 7.8786426861,6.5274783739\H,12.0669313179,8.3942328845,5.004952456\H,1
 0.1412148124,9.2688498209,6.3436885902\H,10.9674737544,8.8008380542,7.
 9093168326\H,11.0032520618,6.4163696304,7.1839517633\N,5.8730269515,7.
 249234179,8.1500151429\C,4.4412118139,6.9124683149,8.3799976569\C,4.24
 12302769,6.6697527378,9.8811058153\N,4.6191351429,7.9027009953,10.6065
 81205\C,6.3122892899,8.4431487613,8.9358828939\C,6.0557144844,8.222666
 0328,10.4360817356\H,4.366552346,7.8531622473,11.5992213021\H,4.193589
 8028,6.0133971652,7.8166129702\H,3.7850623171,7.7306549304,8.062566791
 5\H,5.7439191491,9.329030903,8.6165711717\H,7.3781261475,8.582139766,8
 .7655571273\H,6.707833381,7.3932542571,10.7681355607\H,3.1845812891,6.
 4563723071,10.0728797891\H,4.8436868748,5.789952813,10.1739191963\O,7.
 4714493459,6.1306092622,2.0558816883\O,9.7802462463,5.5754612456,0.715
 969483\O,11.7491776106,5.7552409799,1.8553635668\N,9.8973885562,6.7434
 523548,5.3651618972\C,7.8604528572,6.9380456952,6.7763839942\C,8.49253
 01764,6.7716938552,5.5256019407\C,7.692659974,6.5916602329,4.378830111
 2\C,10.4143928741,6.4142482474,4.150404197\C,9.6915795244,6.1656816562
 ,3.0172100003\C,8.2392773743,6.27858473,3.0264735719\C,6.3045769786,6.
 6718207437,4.4899145416\C,6.4578423333,7.0516943033,6.8871636852\C,5.7
 101116351,6.9322107062,5.6961838001\C,10.5133028912,5.8228182979,1.848
 7411528\H,11.4928468021,6.3577042684,4.0846710722\H,10.4268227725,5.35
 5500207,-0.0108439042\F,4.3384786732,7.0610863162,5.7506235233\C,6.385
 4768009,9.4974187651,11.2260067598\H,5.7254350327,10.3054094951,10.895
 9401444\H,7.4288364177,9.7927592452,11.0718680241\H,6.2287919856,9.337
 2894962,12.2993628997\O,8.6407800085,6.9788416077,7.9473052735\C,8.528
 2082754,5.7313312116,8.7546447188\H,7.4890770181,5.5734932984,9.046302
 0798\H,9.1525485788,5.9049554154,9.6321406315\H,8.90271089,4.875544722
 ,8.1836258569\H,5.7205278636,6.5482793377,3.5879385515\\Version=ES64L-
 G09RevD.01\State=1-A\HF=-1295.0746893\RMSD=8.253e-09\RMSF=6.041e-06\Di
 pole=0.59185,0.081783,3.0477243\Quadrupole=0.1254944,-0.0451913,-0.080
 3031,3.1660825,-2.3644974,-4.6280773\PG=C01 [X(C19H22F1N3O4)]\\@


 Everywhere is walking distance if you have the time.
                                    -- Steven Wright
 Job cpu time:       0 days  2 hours 37 minutes 13.8 seconds.
 File lengths (MBytes):  RWF=     54 Int=      0 D2E=      0 Chk=      8 Scr=      1
 Normal termination of Gaussian 09 at Mon Jul  6 12:18:28 2020.
