 Entering Gaussian System, Link 0=g09
 Input=temafloxacina.gjf
 Output=temafloxacina.log
 Initial command:
 /usr/local/cluster_programs/g09/l1.exe "/tmp/scratch/64211.prometeo/Gau-10329.inp" -scrdir="/tmp/scratch/64211.prometeo/"
 Entering Link 1 = /usr/local/cluster_programs/g09/l1.exe PID=     10330.
  
 Copyright (c) 1988,1990,1992,1993,1995,1998,2003,2009,2013,
            Gaussian, Inc.  All Rights Reserved.
  
 This is part of the Gaussian(R) 09 program.  It is based on
 the Gaussian(R) 03 system (copyright 2003, Gaussian, Inc.),
 the Gaussian(R) 98 system (copyright 1998, Gaussian, Inc.),
 the Gaussian(R) 94 system (copyright 1995, Gaussian, Inc.),
 the Gaussian 92(TM) system (copyright 1992, Gaussian, Inc.),
 the Gaussian 90(TM) system (copyright 1990, Gaussian, Inc.),
 the Gaussian 88(TM) system (copyright 1988, Gaussian, Inc.),
 the Gaussian 86(TM) system (copyright 1986, Carnegie Mellon
 University), and the Gaussian 82(TM) system (copyright 1983,
 Carnegie Mellon University). Gaussian is a federally registered
 trademark of Gaussian, Inc.
  
 This software contains proprietary and confidential information,
 including trade secrets, belonging to Gaussian, Inc.
  
 This software is provided under written license and may be
 used, copied, transmitted, or stored only in accord with that
 written license.
  
 The following legend is applicable only to US Government
 contracts under FAR:
  
                    RESTRICTED RIGHTS LEGEND
  
 Use, reproduction and disclosure by the US Government is
 subject to restrictions as set forth in subparagraphs (a)
 and (c) of the Commercial Computer Software - Restricted
 Rights clause in FAR 52.227-19.
  
 Gaussian, Inc.
 340 Quinnipiac St., Bldg. 40, Wallingford CT 06492
  
  
 ---------------------------------------------------------------
 Warning -- This program may not be used in any manner that
 competes with the business of Gaussian, Inc. or will provide
 assistance to any competitor of Gaussian, Inc.  The licensee
 of this program is prohibited from giving any competitor of
 Gaussian, Inc. access to this program.  By using this program,
 the user acknowledges that Gaussian, Inc. is engaged in the
 business of creating and licensing software in the field of
 computational chemistry and represents and warrants to the
 licensee that it is not a competitor of Gaussian, Inc. and that
 it will not use this program in any manner prohibited above.
 ---------------------------------------------------------------
  

 Cite this work as:
 Gaussian 09, Revision D.01,
 M. J. Frisch, G. W. Trucks, H. B. Schlegel, G. E. Scuseria, 
 M. A. Robb, J. R. Cheeseman, G. Scalmani, V. Barone, B. Mennucci, 
 G. A. Petersson, H. Nakatsuji, M. Caricato, X. Li, H. P. Hratchian, 
 A. F. Izmaylov, J. Bloino, G. Zheng, J. L. Sonnenberg, M. Hada, 
 M. Ehara, K. Toyota, R. Fukuda, J. Hasegawa, M. Ishida, T. Nakajima, 
 Y. Honda, O. Kitao, H. Nakai, T. Vreven, J. A. Montgomery, Jr., 
 J. E. Peralta, F. Ogliaro, M. Bearpark, J. J. Heyd, E. Brothers, 
 K. N. Kudin, V. N. Staroverov, T. Keith, R. Kobayashi, J. Normand, 
 K. Raghavachari, A. Rendell, J. C. Burant, S. S. Iyengar, J. Tomasi, 
 M. Cossi, N. Rega, J. M. Millam, M. Klene, J. E. Knox, J. B. Cross, 
 V. Bakken, C. Adamo, J. Jaramillo, R. Gomperts, R. E. Stratmann, 
 O. Yazyev, A. J. Austin, R. Cammi, C. Pomelli, J. W. Ochterski, 
 R. L. Martin, K. Morokuma, V. G. Zakrzewski, G. A. Voth, 
 P. Salvador, J. J. Dannenberg, S. Dapprich, A. D. Daniels, 
 O. Farkas, J. B. Foresman, J. V. Ortiz, J. Cioslowski, 
 and D. J. Fox, Gaussian, Inc., Wallingford CT, 2013.
 
 ******************************************
 Gaussian 09:  ES64L-G09RevD.01 24-Apr-2013
                21-Jul-2020 
 ******************************************
 %nprocshared=20
 Will use up to   20 processors via shared memory.
 -----------------------------------------------------
 #opt M06/lanl2dz integral=ultrafine geom=connectivity
 -----------------------------------------------------
 1/14=-1,18=20,19=15,26=4,38=1,57=2/1,3;
 2/9=110,12=2,17=6,18=5,40=1/2;
 3/5=6,6=3,11=2,16=1,25=1,30=1,71=1,74=-54,75=-5/1,2,3;
 4//1;
 5/5=2,38=5/2;
 6/7=2,8=2,9=2,10=2,28=1/1;
 7//1,2,3,16;
 1/14=-1,18=20,19=15,26=4/3(2);
 2/9=110/2;
 99//99;
 2/9=110/2;
 3/5=6,6=3,11=2,16=1,25=1,30=1,71=1,74=-54,75=-5/1,2,3;
 4/5=5,16=3,69=1/1;
 5/5=2,38=5/2;
 7//1,2,3,16;
 1/14=-1,18=20,19=15,26=4/3(-5);
 2/9=110/2;
 6/7=2,8=2,9=2,10=2,19=2,28=1/1;
 99/9=1/99;
 -------------------
 Title Card Required
 -------------------
 Symbolic Z-matrix:
 Charge =  0 Multiplicity = 1
 N                    -2.99335  -0.68831   0.67455 
 C                    -3.27527   0.70643   1.07166 
 C                    -3.8404    1.49148  -0.12819 
 N                    -5.05792   0.77645  -0.583 
 C                    -4.20535  -1.38147   0.17537 
 C                    -4.78532  -0.61453  -1.03216 
 H                    -5.5579    1.30473  -1.30562 
 H                    -2.37251   1.16184   1.48592 
 H                    -4.05177   0.67694   1.84501 
 H                    -4.96007  -1.37566   0.97081 
 H                    -3.95322  -2.40385  -0.08796 
 H                    -4.03647  -0.65341  -1.84511 
 H                    -4.12362   2.50143   0.18686 
 H                    -3.0594    1.56691  -0.90699 
 O                     2.59482  -3.736    -0.03877 
 O                     5.18891  -2.97712  -0.31636 
 O                     5.65255  -0.74696  -0.44812 
 N                     1.72191   0.32173  -0.05403 
 C                    -0.65841  -0.21133   0.19835 
 C                     0.67224  -0.61796   0.09379 
 C                     0.99409  -1.98485   0.10345 
 C                     3.00895  -0.13324  -0.17868 
 C                     3.37289  -1.44684  -0.18285 
 C                     2.37169  -2.51001  -0.04207 
 C                    -0.05177  -2.90664   0.25 
 C                    -1.70513  -1.12001   0.41278 
 C                    -6.10018  -1.25564  -1.49631 
 C                    -1.34605  -2.49656   0.41592 
 C                     4.82309  -1.657    -0.32684 
 H                     3.78464   0.61755  -0.26605 
 H                     0.20266  -3.95824   0.26293 
 H                    -6.83093  -1.20991  -0.68281 
 H                    -6.50844  -0.71886  -2.36087 
 H                    -5.94137  -2.3      -1.78517 
 H                     6.1807   -3.01061  -0.41689 
 C                     1.15633   4.50889  -0.1583 
 C                     0.66926   3.78163   0.91833 
 C                     0.84614   2.40837   0.95177 
 C                     1.80093   3.87339  -1.21215 
 C                     1.95375   2.49102  -1.17852 
 C                     1.48803   1.73811  -0.09575 
 H                     2.16531   4.45618  -2.04583 
 H                     0.17022   4.27933   1.73618 
 F                    -2.33244  -3.44604   0.6037 
 H                    -0.89398   0.83324   0.09548 
 F                     0.98976   5.86241  -0.1789 
 H                     2.43432   1.97772  -2.00109 
 F                     0.34601   1.70438   2.01152 
 

 GradGradGradGradGradGradGradGradGradGradGradGradGradGradGradGradGradGrad
 Berny optimization.
 Initialization pass.
                           ----------------------------
                           !    Initial Parameters    !
                           ! (Angstroms and Degrees)  !
 --------------------------                            --------------------------
 ! Name  Definition              Value          Derivative Info.                !
 --------------------------------------------------------------------------------
 ! R1    R(1,2)                  1.4773         estimate D2E/DX2                !
 ! R2    R(1,5)                  1.4828         estimate D2E/DX2                !
 ! R3    R(1,26)                 1.3836         estimate D2E/DX2                !
 ! R4    R(2,3)                  1.5412         estimate D2E/DX2                !
 ! R5    R(2,8)                  1.0927         estimate D2E/DX2                !
 ! R6    R(2,9)                  1.0963         estimate D2E/DX2                !
 ! R7    R(3,4)                  1.4834         estimate D2E/DX2                !
 ! R8    R(3,13)                 1.0952         estimate D2E/DX2                !
 ! R9    R(3,14)                 1.1055         estimate D2E/DX2                !
 ! R10   R(4,6)                  1.4869         estimate D2E/DX2                !
 ! R11   R(4,7)                  1.0253         estimate D2E/DX2                !
 ! R12   R(5,6)                  1.5436         estimate D2E/DX2                !
 ! R13   R(5,10)                 1.0965         estimate D2E/DX2                !
 ! R14   R(5,11)                 1.0854         estimate D2E/DX2                !
 ! R15   R(6,12)                 1.106          estimate D2E/DX2                !
 ! R16   R(6,27)                 1.5347         estimate D2E/DX2                !
 ! R17   R(15,24)                1.2461         estimate D2E/DX2                !
 ! R18   R(16,29)                1.3699         estimate D2E/DX2                !
 ! R19   R(16,35)                0.9974         estimate D2E/DX2                !
 ! R20   R(17,29)                1.2373         estimate D2E/DX2                !
 ! R21   R(18,20)                1.4166         estimate D2E/DX2                !
 ! R22   R(18,22)                1.3708         estimate D2E/DX2                !
 ! R23   R(18,41)                1.4362         estimate D2E/DX2                !
 ! R24   R(19,20)                1.3953         estimate D2E/DX2                !
 ! R25   R(19,26)                1.4026         estimate D2E/DX2                !
 ! R26   R(19,45)                1.0757         estimate D2E/DX2                !
 ! R27   R(20,21)                1.4043         estimate D2E/DX2                !
 ! R28   R(21,24)                1.4815         estimate D2E/DX2                !
 ! R29   R(21,25)                1.4018         estimate D2E/DX2                !
 ! R30   R(22,23)                1.3631         estimate D2E/DX2                !
 ! R31   R(22,30)                1.0831         estimate D2E/DX2                !
 ! R32   R(23,24)                1.4672         estimate D2E/DX2                !
 ! R33   R(23,29)                1.4724         estimate D2E/DX2                !
 ! R34   R(25,28)                1.3678         estimate D2E/DX2                !
 ! R35   R(25,31)                1.082          estimate D2E/DX2                !
 ! R36   R(26,28)                1.4226         estimate D2E/DX2                !
 ! R37   R(27,32)                1.0945         estimate D2E/DX2                !
 ! R38   R(27,33)                1.0965         estimate D2E/DX2                !
 ! R39   R(27,34)                1.0951         estimate D2E/DX2                !
 ! R40   R(28,44)                1.3819         estimate D2E/DX2                !
 ! R41   R(36,37)                1.3875         estimate D2E/DX2                !
 ! R42   R(36,39)                1.3892         estimate D2E/DX2                !
 ! R43   R(36,46)                1.3639         estimate D2E/DX2                !
 ! R44   R(37,38)                1.385          estimate D2E/DX2                !
 ! R45   R(37,43)                1.0796         estimate D2E/DX2                !
 ! R46   R(38,41)                1.3995         estimate D2E/DX2                !
 ! R47   R(38,48)                1.367          estimate D2E/DX2                !
 ! R48   R(39,40)                1.3912         estimate D2E/DX2                !
 ! R49   R(39,42)                1.0805         estimate D2E/DX2                !
 ! R50   R(40,41)                1.3986         estimate D2E/DX2                !
 ! R51   R(40,47)                1.0822         estimate D2E/DX2                !
 ! A1    A(2,1,5)              112.0772         estimate D2E/DX2                !
 ! A2    A(2,1,26)             121.5403         estimate D2E/DX2                !
 ! A3    A(5,1,26)             123.4688         estimate D2E/DX2                !
 ! A4    A(1,2,3)              109.9747         estimate D2E/DX2                !
 ! A5    A(1,2,8)              109.7384         estimate D2E/DX2                !
 ! A6    A(1,2,9)              107.4207         estimate D2E/DX2                !
 ! A7    A(3,2,8)              112.6938         estimate D2E/DX2                !
 ! A8    A(3,2,9)              107.6472         estimate D2E/DX2                !
 ! A9    A(8,2,9)              109.2047         estimate D2E/DX2                !
 ! A10   A(2,3,4)              107.1049         estimate D2E/DX2                !
 ! A11   A(2,3,13)             109.913          estimate D2E/DX2                !
 ! A12   A(2,3,14)             108.914          estimate D2E/DX2                !
 ! A13   A(4,3,13)             108.6899         estimate D2E/DX2                !
 ! A14   A(4,3,14)             113.3743         estimate D2E/DX2                !
 ! A15   A(13,3,14)            108.809          estimate D2E/DX2                !
 ! A16   A(3,4,6)              113.1454         estimate D2E/DX2                !
 ! A17   A(3,4,7)              111.5905         estimate D2E/DX2                !
 ! A18   A(6,4,7)              111.0083         estimate D2E/DX2                !
 ! A19   A(1,5,6)              109.7679         estimate D2E/DX2                !
 ! A20   A(1,5,10)             108.4157         estimate D2E/DX2                !
 ! A21   A(1,5,11)             109.3983         estimate D2E/DX2                !
 ! A22   A(6,5,10)             107.8329         estimate D2E/DX2                !
 ! A23   A(6,5,11)             111.4366         estimate D2E/DX2                !
 ! A24   A(10,5,11)            109.929          estimate D2E/DX2                !
 ! A25   A(4,6,5)              107.2996         estimate D2E/DX2                !
 ! A26   A(4,6,12)             112.2758         estimate D2E/DX2                !
 ! A27   A(4,6,27)             108.9701         estimate D2E/DX2                !
 ! A28   A(5,6,12)             107.6469         estimate D2E/DX2                !
 ! A29   A(5,6,27)             110.545          estimate D2E/DX2                !
 ! A30   A(12,6,27)            110.0669         estimate D2E/DX2                !
 ! A31   A(29,16,35)           107.2847         estimate D2E/DX2                !
 ! A32   A(20,18,22)           119.0153         estimate D2E/DX2                !
 ! A33   A(20,18,41)           122.4513         estimate D2E/DX2                !
 ! A34   A(22,18,41)           118.5285         estimate D2E/DX2                !
 ! A35   A(20,19,26)           122.2992         estimate D2E/DX2                !
 ! A36   A(20,19,45)           118.9893         estimate D2E/DX2                !
 ! A37   A(26,19,45)           118.704          estimate D2E/DX2                !
 ! A38   A(18,20,19)           121.4095         estimate D2E/DX2                !
 ! A39   A(18,20,21)           118.462          estimate D2E/DX2                !
 ! A40   A(19,20,21)           120.1132         estimate D2E/DX2                !
 ! A41   A(20,21,24)           123.8822         estimate D2E/DX2                !
 ! A42   A(20,21,25)           118.0204         estimate D2E/DX2                !
 ! A43   A(24,21,25)           118.0958         estimate D2E/DX2                !
 ! A44   A(18,22,23)           124.8076         estimate D2E/DX2                !
 ! A45   A(18,22,30)           116.7249         estimate D2E/DX2                !
 ! A46   A(23,22,30)           118.462          estimate D2E/DX2                !
 ! A47   A(22,23,24)           121.0538         estimate D2E/DX2                !
 ! A48   A(22,23,29)           113.6294         estimate D2E/DX2                !
 ! A49   A(24,23,29)           125.3148         estimate D2E/DX2                !
 ! A50   A(15,24,21)           120.9978         estimate D2E/DX2                !
 ! A51   A(15,24,23)           126.2273         estimate D2E/DX2                !
 ! A52   A(21,24,23)           112.7749         estimate D2E/DX2                !
 ! A53   A(21,25,28)           121.4347         estimate D2E/DX2                !
 ! A54   A(21,25,31)           117.7043         estimate D2E/DX2                !
 ! A55   A(28,25,31)           120.8262         estimate D2E/DX2                !
 ! A56   A(1,26,19)            121.4398         estimate D2E/DX2                !
 ! A57   A(1,26,28)            122.4455         estimate D2E/DX2                !
 ! A58   A(19,26,28)           116.03           estimate D2E/DX2                !
 ! A59   A(6,27,32)            109.2557         estimate D2E/DX2                !
 ! A60   A(6,27,33)            110.6687         estimate D2E/DX2                !
 ! A61   A(6,27,34)            110.7257         estimate D2E/DX2                !
 ! A62   A(32,27,33)           108.4827         estimate D2E/DX2                !
 ! A63   A(32,27,34)           109.4341         estimate D2E/DX2                !
 ! A64   A(33,27,34)           108.2313         estimate D2E/DX2                !
 ! A65   A(25,28,26)           121.9163         estimate D2E/DX2                !
 ! A66   A(25,28,44)           119.0721         estimate D2E/DX2                !
 ! A67   A(26,28,44)           119.0092         estimate D2E/DX2                !
 ! A68   A(16,29,17)           122.0396         estimate D2E/DX2                !
 ! A69   A(16,29,23)           113.5667         estimate D2E/DX2                !
 ! A70   A(17,29,23)           124.3938         estimate D2E/DX2                !
 ! A71   A(37,36,39)           120.7782         estimate D2E/DX2                !
 ! A72   A(37,36,46)           119.2754         estimate D2E/DX2                !
 ! A73   A(39,36,46)           119.9453         estimate D2E/DX2                !
 ! A74   A(36,37,38)           119.5771         estimate D2E/DX2                !
 ! A75   A(36,37,43)           120.558          estimate D2E/DX2                !
 ! A76   A(38,37,43)           119.856          estimate D2E/DX2                !
 ! A77   A(37,38,41)           121.0227         estimate D2E/DX2                !
 ! A78   A(37,38,48)           118.8552         estimate D2E/DX2                !
 ! A79   A(41,38,48)           120.0933         estimate D2E/DX2                !
 ! A80   A(36,39,40)           119.155          estimate D2E/DX2                !
 ! A81   A(36,39,42)           119.6734         estimate D2E/DX2                !
 ! A82   A(40,39,42)           121.1688         estimate D2E/DX2                !
 ! A83   A(39,40,41)           121.1341         estimate D2E/DX2                !
 ! A84   A(39,40,47)           120.115          estimate D2E/DX2                !
 ! A85   A(41,40,47)           118.7499         estimate D2E/DX2                !
 ! A86   A(18,41,38)           121.6874         estimate D2E/DX2                !
 ! A87   A(18,41,40)           119.945          estimate D2E/DX2                !
 ! A88   A(38,41,40)           118.3183         estimate D2E/DX2                !
 ! D1    D(5,1,2,3)            -58.729          estimate D2E/DX2                !
 ! D2    D(5,1,2,8)            176.7616         estimate D2E/DX2                !
 ! D3    D(5,1,2,9)             58.1504         estimate D2E/DX2                !
 ! D4    D(26,1,2,3)           102.5716         estimate D2E/DX2                !
 ! D5    D(26,1,2,8)           -21.9378         estimate D2E/DX2                !
 ! D6    D(26,1,2,9)          -140.549          estimate D2E/DX2                !
 ! D7    D(2,1,5,6)             58.3488         estimate D2E/DX2                !
 ! D8    D(2,1,5,10)           -59.2091         estimate D2E/DX2                !
 ! D9    D(2,1,5,11)          -179.0846         estimate D2E/DX2                !
 ! D10   D(26,1,5,6)          -102.5308         estimate D2E/DX2                !
 ! D11   D(26,1,5,10)          139.9113         estimate D2E/DX2                !
 ! D12   D(26,1,5,11)           20.0358         estimate D2E/DX2                !
 ! D13   D(2,1,26,19)          -15.4178         estimate D2E/DX2                !
 ! D14   D(2,1,26,28)          161.1014         estimate D2E/DX2                !
 ! D15   D(5,1,26,19)          143.7182         estimate D2E/DX2                !
 ! D16   D(5,1,26,28)          -39.7626         estimate D2E/DX2                !
 ! D17   D(1,2,3,4)             57.5987         estimate D2E/DX2                !
 ! D18   D(1,2,3,13)           175.508          estimate D2E/DX2                !
 ! D19   D(1,2,3,14)           -65.3737         estimate D2E/DX2                !
 ! D20   D(8,2,3,4)           -179.6159         estimate D2E/DX2                !
 ! D21   D(8,2,3,13)           -61.7066         estimate D2E/DX2                !
 ! D22   D(8,2,3,14)            57.4118         estimate D2E/DX2                !
 ! D23   D(9,2,3,4)            -59.1392         estimate D2E/DX2                !
 ! D24   D(9,2,3,13)            58.7702         estimate D2E/DX2                !
 ! D25   D(9,2,3,14)           177.8885         estimate D2E/DX2                !
 ! D26   D(2,3,4,6)            -61.1414         estimate D2E/DX2                !
 ! D27   D(2,3,4,7)            172.8101         estimate D2E/DX2                !
 ! D28   D(13,3,4,6)          -179.8461         estimate D2E/DX2                !
 ! D29   D(13,3,4,7)            54.1054         estimate D2E/DX2                !
 ! D30   D(14,3,4,6)            59.0226         estimate D2E/DX2                !
 ! D31   D(14,3,4,7)           -67.0259         estimate D2E/DX2                !
 ! D32   D(3,4,6,5)             60.9999         estimate D2E/DX2                !
 ! D33   D(3,4,6,12)           -57.0802         estimate D2E/DX2                !
 ! D34   D(3,4,6,27)          -179.2813         estimate D2E/DX2                !
 ! D35   D(7,4,6,5)           -172.6415         estimate D2E/DX2                !
 ! D36   D(7,4,6,12)            69.2784         estimate D2E/DX2                !
 ! D37   D(7,4,6,27)           -52.9227         estimate D2E/DX2                !
 ! D38   D(1,5,6,4)            -56.9715         estimate D2E/DX2                !
 ! D39   D(1,5,6,12)            64.0735         estimate D2E/DX2                !
 ! D40   D(1,5,6,27)          -175.6786         estimate D2E/DX2                !
 ! D41   D(10,5,6,4)            60.9491         estimate D2E/DX2                !
 ! D42   D(10,5,6,12)         -178.0058         estimate D2E/DX2                !
 ! D43   D(10,5,6,27)          -57.7579         estimate D2E/DX2                !
 ! D44   D(11,5,6,4)          -178.3218         estimate D2E/DX2                !
 ! D45   D(11,5,6,12)          -57.2767         estimate D2E/DX2                !
 ! D46   D(11,5,6,27)           62.9712         estimate D2E/DX2                !
 ! D47   D(4,6,27,32)          -56.4638         estimate D2E/DX2                !
 ! D48   D(4,6,27,33)           62.9219         estimate D2E/DX2                !
 ! D49   D(4,6,27,34)         -177.0613         estimate D2E/DX2                !
 ! D50   D(5,6,27,32)           61.2227         estimate D2E/DX2                !
 ! D51   D(5,6,27,33)         -179.3917         estimate D2E/DX2                !
 ! D52   D(5,6,27,34)          -59.3748         estimate D2E/DX2                !
 ! D53   D(12,6,27,32)        -179.9894         estimate D2E/DX2                !
 ! D54   D(12,6,27,33)         -60.6037         estimate D2E/DX2                !
 ! D55   D(12,6,27,34)          59.4131         estimate D2E/DX2                !
 ! D56   D(35,16,29,17)          0.1685         estimate D2E/DX2                !
 ! D57   D(35,16,29,23)       -179.8794         estimate D2E/DX2                !
 ! D58   D(22,18,20,19)       -178.7305         estimate D2E/DX2                !
 ! D59   D(22,18,20,21)         -0.1523         estimate D2E/DX2                !
 ! D60   D(41,18,20,19)          0.4523         estimate D2E/DX2                !
 ! D61   D(41,18,20,21)        179.0305         estimate D2E/DX2                !
 ! D62   D(20,18,22,23)          0.5421         estimate D2E/DX2                !
 ! D63   D(20,18,22,30)       -178.5967         estimate D2E/DX2                !
 ! D64   D(41,18,22,23)       -178.673          estimate D2E/DX2                !
 ! D65   D(41,18,22,30)          2.1882         estimate D2E/DX2                !
 ! D66   D(20,18,41,38)         57.848          estimate D2E/DX2                !
 ! D67   D(20,18,41,40)       -124.7494         estimate D2E/DX2                !
 ! D68   D(22,18,41,38)       -122.9654         estimate D2E/DX2                !
 ! D69   D(22,18,41,40)         54.4371         estimate D2E/DX2                !
 ! D70   D(26,19,20,18)       -176.7071         estimate D2E/DX2                !
 ! D71   D(26,19,20,21)          4.7379         estimate D2E/DX2                !
 ! D72   D(45,19,20,18)          4.3001         estimate D2E/DX2                !
 ! D73   D(45,19,20,21)       -174.2549         estimate D2E/DX2                !
 ! D74   D(20,19,26,1)         172.078          estimate D2E/DX2                !
 ! D75   D(20,19,26,28)         -4.6531         estimate D2E/DX2                !
 ! D76   D(45,19,26,1)          -8.9264         estimate D2E/DX2                !
 ! D77   D(45,19,26,28)        174.3424         estimate D2E/DX2                !
 ! D78   D(18,20,21,24)         -0.4595         estimate D2E/DX2                !
 ! D79   D(18,20,21,25)       -179.9887         estimate D2E/DX2                !
 ! D80   D(19,20,21,24)        178.1376         estimate D2E/DX2                !
 ! D81   D(19,20,21,25)         -1.3915         estimate D2E/DX2                !
 ! D82   D(20,21,24,15)       -179.2994         estimate D2E/DX2                !
 ! D83   D(20,21,24,23)          0.6583         estimate D2E/DX2                !
 ! D84   D(25,21,24,15)          0.2294         estimate D2E/DX2                !
 ! D85   D(25,21,24,23)       -179.8128         estimate D2E/DX2                !
 ! D86   D(20,21,25,28)         -1.7559         estimate D2E/DX2                !
 ! D87   D(20,21,25,31)       -179.6286         estimate D2E/DX2                !
 ! D88   D(24,21,25,28)        178.6872         estimate D2E/DX2                !
 ! D89   D(24,21,25,31)          0.8145         estimate D2E/DX2                !
 ! D90   D(18,22,23,24)         -0.3019         estimate D2E/DX2                !
 ! D91   D(18,22,23,29)       -179.8143         estimate D2E/DX2                !
 ! D92   D(30,22,23,24)        178.8231         estimate D2E/DX2                !
 ! D93   D(30,22,23,29)         -0.6893         estimate D2E/DX2                !
 ! D94   D(22,23,24,15)        179.6734         estimate D2E/DX2                !
 ! D95   D(22,23,24,21)         -0.2818         estimate D2E/DX2                !
 ! D96   D(29,23,24,15)         -0.8741         estimate D2E/DX2                !
 ! D97   D(29,23,24,21)        179.1708         estimate D2E/DX2                !
 ! D98   D(22,23,29,16)        179.334          estimate D2E/DX2                !
 ! D99   D(22,23,29,17)         -0.7152         estimate D2E/DX2                !
 ! D100  D(24,23,29,16)         -0.1541         estimate D2E/DX2                !
 ! D101  D(24,23,29,17)        179.7967         estimate D2E/DX2                !
 ! D102  D(21,25,28,26)          1.7218         estimate D2E/DX2                !
 ! D103  D(21,25,28,44)       -177.7065         estimate D2E/DX2                !
 ! D104  D(31,25,28,26)        179.5284         estimate D2E/DX2                !
 ! D105  D(31,25,28,44)          0.1002         estimate D2E/DX2                !
 ! D106  D(1,26,28,25)        -175.258          estimate D2E/DX2                !
 ! D107  D(1,26,28,44)           4.1706         estimate D2E/DX2                !
 ! D108  D(19,26,28,25)          1.4372         estimate D2E/DX2                !
 ! D109  D(19,26,28,44)       -179.1342         estimate D2E/DX2                !
 ! D110  D(39,36,37,38)          0.9902         estimate D2E/DX2                !
 ! D111  D(39,36,37,43)        179.9044         estimate D2E/DX2                !
 ! D112  D(46,36,37,38)       -179.3902         estimate D2E/DX2                !
 ! D113  D(46,36,37,43)         -0.476          estimate D2E/DX2                !
 ! D114  D(37,36,39,40)          0.0552         estimate D2E/DX2                !
 ! D115  D(37,36,39,42)        179.4475         estimate D2E/DX2                !
 ! D116  D(46,36,39,40)       -179.5619         estimate D2E/DX2                !
 ! D117  D(46,36,39,42)         -0.1695         estimate D2E/DX2                !
 ! D118  D(36,37,38,41)         -1.1593         estimate D2E/DX2                !
 ! D119  D(36,37,38,48)       -179.2084         estimate D2E/DX2                !
 ! D120  D(43,37,38,41)        179.9187         estimate D2E/DX2                !
 ! D121  D(43,37,38,48)          1.8697         estimate D2E/DX2                !
 ! D122  D(37,38,41,18)        177.7227         estimate D2E/DX2                !
 ! D123  D(37,38,41,40)          0.2794         estimate D2E/DX2                !
 ! D124  D(48,38,41,18)         -4.2522         estimate D2E/DX2                !
 ! D125  D(48,38,41,40)        178.3045         estimate D2E/DX2                !
 ! D126  D(36,39,40,41)         -0.9555         estimate D2E/DX2                !
 ! D127  D(36,39,40,47)        178.6756         estimate D2E/DX2                !
 ! D128  D(42,39,40,41)        179.6615         estimate D2E/DX2                !
 ! D129  D(42,39,40,47)         -0.7074         estimate D2E/DX2                !
 ! D130  D(39,40,41,18)       -176.7015         estimate D2E/DX2                !
 ! D131  D(39,40,41,38)          0.7878         estimate D2E/DX2                !
 ! D132  D(47,40,41,18)          3.6625         estimate D2E/DX2                !
 ! D133  D(47,40,41,38)       -178.8482         estimate D2E/DX2                !
 --------------------------------------------------------------------------------
 Trust Radius=3.00D-01 FncErr=1.00D-07 GrdErr=1.00D-06
 Number of steps in this run=    282 maximum allowed number of steps=    288.
 GradGradGradGradGradGradGradGradGradGradGradGradGradGradGradGradGradGrad

                          Input orientation:                          
 ---------------------------------------------------------------------
 Center     Atomic      Atomic             Coordinates (Angstroms)
 Number     Number       Type             X           Y           Z
 ---------------------------------------------------------------------
      1          7           0       -2.993346   -0.688308    0.674550
      2          6           0       -3.275265    0.706432    1.071658
      3          6           0       -3.840399    1.491477   -0.128193
      4          7           0       -5.057920    0.776450   -0.582995
      5          6           0       -4.205346   -1.381467    0.175371
      6          6           0       -4.785319   -0.614532   -1.032160
      7          1           0       -5.557904    1.304729   -1.305615
      8          1           0       -2.372514    1.161835    1.485922
      9          1           0       -4.051772    0.676944    1.845008
     10          1           0       -4.960066   -1.375657    0.970805
     11          1           0       -3.953222   -2.403851   -0.087964
     12          1           0       -4.036470   -0.653410   -1.845107
     13          1           0       -4.123618    2.501428    0.186859
     14          1           0       -3.059401    1.566912   -0.906994
     15          8           0        2.594824   -3.736000   -0.038766
     16          8           0        5.188910   -2.977120   -0.316364
     17          8           0        5.652548   -0.746962   -0.448120
     18          7           0        1.721906    0.321732   -0.054029
     19          6           0       -0.658414   -0.211334    0.198351
     20          6           0        0.672240   -0.617962    0.093791
     21          6           0        0.994090   -1.984848    0.103448
     22          6           0        3.008953   -0.133242   -0.178678
     23          6           0        3.372889   -1.446841   -0.182853
     24          6           0        2.371687   -2.510009   -0.042066
     25          6           0       -0.051770   -2.906635    0.250004
     26          6           0       -1.705131   -1.120009    0.412778
     27          6           0       -6.100183   -1.255635   -1.496306
     28          6           0       -1.346045   -2.496559    0.415921
     29          6           0        4.823085   -1.657004   -0.326837
     30          1           0        3.784643    0.617549   -0.266054
     31          1           0        0.202656   -3.958237    0.262929
     32          1           0       -6.830931   -1.209905   -0.682808
     33          1           0       -6.508437   -0.718863   -2.360866
     34          1           0       -5.941370   -2.299995   -1.785172
     35          1           0        6.180697   -3.010611   -0.416888
     36          6           0        1.156328    4.508889   -0.158295
     37          6           0        0.669259    3.781625    0.918330
     38          6           0        0.846143    2.408372    0.951768
     39          6           0        1.800931    3.873390   -1.212147
     40          6           0        1.953747    2.491024   -1.178519
     41          6           0        1.488031    1.738112   -0.095747
     42          1           0        2.165314    4.456179   -2.045833
     43          1           0        0.170217    4.279328    1.736180
     44          9           0       -2.332436   -3.446036    0.603695
     45          1           0       -0.893978    0.833235    0.095483
     46          9           0        0.989764    5.862407   -0.178900
     47          1           0        2.434316    1.977715   -2.001092
     48          9           0        0.346009    1.704379    2.011518
 ---------------------------------------------------------------------
                    Distance matrix (angstroms):
                    1          2          3          4          5
     1  N    0.000000
     2  C    1.477319   0.000000
     3  C    2.472521   1.541206   0.000000
     4  N    2.826553   2.433236   1.483397   0.000000
     5  C    1.482765   2.455138   2.911897   2.441026   0.000000
     6  C    2.475776   2.907105   2.478972   1.486907   1.543596
     7  H    3.803973   3.349601   2.090699   1.025301   3.352370
     8  H    2.113477   1.092687   2.206517   3.411795   3.397823
     9  H    2.086660   1.096313   2.145149   2.630101   2.654869
    10  H    2.104330   2.680265   3.268319   2.656207   1.096518
    11  H    2.108525   3.387951   3.897169   3.402900   1.085440
    12  H    2.727269   3.306981   2.754411   2.163513   2.154279
    13  H    3.419031   2.173611   1.095204   2.107402   3.883772
    14  H    2.755297   2.168430   1.105522   2.173450   3.343298
    15  O    6.405068   7.444877   8.291357   8.900724   7.199444
    16  O    8.553940   9.334743  10.076318  10.915947   9.541486
    17  O    8.718676   9.172128   9.758535  10.819108   9.897950
    18  N    4.876947   5.136816   5.684456   6.815615   6.171372
    19  C    2.430263   2.907382   3.623703   4.576229   3.735032
    20  C    3.711974   4.277036   4.986273   5.936089   4.937655
    21  C    4.231645   5.138853   5.959092   6.687510   5.234823
    22  C    6.087996   6.462181   7.039594   8.128066   7.330043
    23  C    6.468343   7.099883   7.788981   8.728212   7.586979
    24  C    5.711017   6.593477   7.389812   8.142019   6.676694
    25  C    3.708650   4.911241   5.817227   6.270609   4.425370
    26  C    1.383614   2.497064   3.416413   3.978607   2.525034
    27  C    3.832351   4.292355   3.811165   2.459638   2.529969
    28  C    2.459728   3.796187   4.735218   5.048607   3.078457
    29  C    7.939631   8.551309   9.219997  10.179468   9.046585
    30  H    6.966429   7.186075   7.676198   8.849668   8.248081
    31  H    4.590893   5.874446   6.796959   7.127868   5.106652
    32  H    4.103845   4.403778   4.067966   2.664421   2.767598
    33  H    4.644410   4.926164   4.121754   2.738756   3.489380
    34  H    4.163966   4.930334   4.640573   3.419097   2.775104
    35  H    9.526143  10.268758  10.989746  11.860689  10.529709
    36  C    6.702558   5.967452   5.837205   7.261429   7.972150
    37  C    5.783978   5.003958   5.164979   6.639701   7.139417
    38  C    4.940441   4.460603   4.895987   6.314794   6.362642
    39  C    6.881410   6.404151   6.218768   7.551868   8.100253
    40  C    6.165691   5.965788   5.972806   7.242782   7.400245
    41  C    5.153990   5.011605   5.334234   6.634130   6.497678
    42  H    7.776760   7.306111   6.966735   8.237440   8.921724
    43  H    5.984363   5.007846   5.228101   6.706873   7.322996
    44  F    2.836703   4.283796   5.214273   5.163902   2.820230
    45  H    2.656644   2.576727   3.027327   4.219238   3.984526
    46  F    7.713975   6.807235   6.514451   7.912315   8.921232
    47  H    6.612583   6.607365   6.566295   7.719303   7.752819
    48  F    4.320154   3.872062   4.706347   6.065888   5.797302
                    6          7          8          9         10
     6  C    0.000000
     7  H    2.086918   0.000000
     8  H    3.913802   4.237901   0.000000
     9  H    3.237916   3.548094   1.784368   0.000000
    10  H    2.149818   3.567067   3.660551   2.408817   0.000000
    11  H    2.187591   4.220337   4.205933   3.638323   1.786592
    12  H    1.105970   2.537739   4.142417   3.922630   3.050251
    13  H    3.410728   2.390971   2.558992   2.466447   4.043019
    14  H    2.784449   2.543650   2.522290   3.057836   3.974590
    15  O    8.074460   9.668548   7.140582   8.197556   7.979149
    16  O   10.275185  11.610636   8.806493  10.169263  10.354864
    17  O   10.455033  11.428866   8.472641  10.072724  10.725492
    18  N    6.646601   7.451737   4.454380   6.088339   6.969947
    19  C    4.325283   5.344657   2.545893   3.874970   4.522891
    20  C    5.572497   6.668566   3.791600   5.201907   5.750315
    21  C    6.047226   7.465615   4.811119   5.964804   6.047760
    22  C    7.855619   8.759497   5.779992   7.389556   8.146789
    23  C    8.244417   9.412268   6.526841   7.984252   8.412736
    24  C    7.469662   8.889724   6.190689   7.414752   7.487808
    25  C    5.413332   7.104439   4.844151   5.602329   5.191803
    26  C    3.439609   4.865808   2.608419   3.284364   3.312303
    27  C    1.534703   2.624099   5.351015   4.369809   2.720461
    28  C    4.179422   5.929016   3.947453   4.408443   3.824325
    29  C    9.690493  10.839502   7.937795   9.430128   9.872845
    30  H    8.691904   9.425290   6.424659   8.116003   9.053874
    31  H    6.143087   7.958844   5.860235   6.487529   5.815884
    32  H    2.158945   2.886498   5.496001   4.204019   2.502408
    33  H    2.178412   2.472244   5.953206   5.066839   3.732139
    34  H    2.178134   3.656645   5.951559   5.060727   3.068023
    35  H   11.241586  12.538212   9.705020  11.109350  11.345279
    36  C    7.894064   7.527542   5.134096   6.769146   8.562302
    37  C    7.272072   7.061055   4.054361   5.725898   7.634763
    38  C    6.692330   6.879362   3.492696   5.271176   6.930462
    39  C    7.971984   7.794819   5.661250   7.336048   8.833394
    40  C    7.421651   7.605810   5.251907   6.964112   8.208022
    41  C    6.765111   7.162179   4.211601   5.965067   7.239547
    42  H    8.663195   8.374226   6.627057   8.250662   9.689244
    43  H    7.494725   7.135273   4.030741   5.551054   7.673621
    44  F    4.087795   6.051353   4.691738   4.636371   3.365365
    45  H    4.302342   4.892605   2.056056   3.613437   4.709402
    46  F    8.719540   8.056915   6.014310   7.510147   9.439908
    47  H    7.731863   8.050601   5.994209   7.652047   8.646049
    48  F    6.400926   6.783751   2.821520   4.519273   6.222872
                   11         12         13         14         15
    11  H    0.000000
    12  H    2.481638   0.000000
    13  H    4.915926   3.753596   0.000000
    14  H    4.151709   2.600875   1.789523   0.000000
    15  O    6.682361   7.532549   9.170271   7.800318   0.000000
    16  O    9.162935   9.635576  10.816233   9.435661   2.717028
    17  O    9.754271   9.789658  10.321272   9.025665   4.295532
    18  N    6.295795   6.108826   6.243337   5.013873   4.150591
    19  C    3.967980   3.972709   4.400778   3.185700   4.802401
    20  C    4.961586   5.092399   5.721845   4.438512   3.665523
    21  C    4.968712   5.556629   6.806215   5.483318   2.376785
    22  C    7.323645   7.258481   7.612403   6.343965   3.629179
    23  C    7.388963   7.634869   8.480751   7.140129   2.422064
    24  C    6.325966   6.911034   8.207064   6.845882   1.246136
    25  C    3.948207   5.034317   6.769865   5.513358   2.788493
    26  C    2.636836   3.278857   4.360611   3.285634   5.053406
    27  C    2.812698   2.177900   4.566769   4.190515   9.158591
    28  C    2.657041   3.968354   5.722522   4.604073   4.156128
    29  C    8.811266   9.044560   9.879268   8.536030   3.061104
    30  H    8.308738   8.079514   8.142157   6.939239   4.518929
    31  H    4.450906   5.773724   7.774941   6.522040   2.421338
    32  H    3.171838   3.077278   4.675453   4.688860   9.779612
    33  H    3.812400   2.526047   4.748530   4.385700   9.867351
    34  H    2.616110   2.518626   5.499708   4.902031   8.830552
    35  H   10.157394  10.582377  11.701538  10.323436   3.677995
    36  C    8.596419   7.513975   5.659228   5.195012   8.370290
    37  C    7.787174   7.032070   5.014541   4.705281   7.819112
    38  C    6.875495   6.406007   5.029142   4.406396   6.464700
    39  C    8.589402   7.414028   6.240175   5.388486   7.740149
    40  C    7.748638   6.798125   6.228863   5.104837   6.362849
    41  C    6.838359   6.268951   5.670372   4.622399   5.585171
    42  H    9.398391   8.038054   6.953893   6.078031   8.445389
    43  H    8.061956   7.406331   4.898810   4.977349   8.560060
    44  F    2.047313   4.086456   6.225304   5.285859   4.977422
    45  H    4.457730   3.981364   3.636178   2.496457   5.750450
    46  F    9.631843   8.396139   6.129978   5.947868   9.732691
    47  H    7.978648   6.987004   6.933102   5.616648   6.043428
    48  F    6.306248   6.295939   4.893080   4.487029   6.233663
                   16         17         18         19         20
    16  O    0.000000
    17  O    2.281650   0.000000
    18  N    4.792845   4.092354   0.000000
    19  C    6.488891   6.366558   2.452301   0.000000
    20  C    5.112158   5.011365   1.416571   1.395320   0.000000
    21  C    4.330977   4.851579   2.423804   2.425928   1.404300
    22  C    3.585919   2.727241   1.370777   3.687524   2.401962
    23  C    2.378552   2.399384   2.422848   4.233580   2.838499
    24  C    2.868829   3.746634   2.905360   3.810934   2.546845
    25  C    5.271667   6.139284   3.696041   2.763211   2.405539
    26  C    7.176929   7.417260   3.747147   1.402600   2.450652
    27  C   11.480392  11.810340   8.108842   5.794418   6.985753
    28  C    6.593392   7.265532   4.192367   2.396336   2.776035
    29  C    1.369907   1.237293   3.688785   5.693208   4.299541
    30  H    3.859552   2.320368   2.094599   4.543509   3.367941
    31  H    5.114773   6.365469   4.552660   3.845113   3.377359
    32  H   12.154584  12.494264   8.711618   6.314551   7.566444
    33  H   12.087499  12.310522   8.610626   6.405462   7.589311
    34  H   11.247179  11.773638   8.282277   6.017183   7.078105
    35  H    0.997431   2.324656   5.578261   7.415383   6.027326
    36  C    8.504530   6.922714   4.226468   5.069614   5.155821
    37  C    8.223889   6.870841   3.744918   4.269052   4.476186
    38  C    7.033584   5.917546   2.476420   3.113549   3.150407
    39  C    7.694824   6.063526   3.736543   4.972208   4.811617
    40  C    6.411723   4.969825   2.454395   4.002736   3.595390
    41  C    5.998216   4.862403   1.436165   2.914457   2.500505
    42  H    8.208966   6.464222   4.610591   5.898769   5.705626
    43  H    9.058491   7.751820   4.612500   4.818464   5.189693
    44  F    7.591906   8.494191   5.573721   3.664690   4.157653
    45  H    7.189572   6.756444   2.669614   1.075731   2.135185
    46  F    9.787184   8.093071   5.590233   6.304692   6.493871
    47  H    5.914092   4.493618   2.653462   4.381149   3.772398
    48  F    7.126651   6.341786   2.841002   2.822481   3.029418
                   21         22         23         24         25
    21  C    0.000000
    22  C    2.750948   0.000000
    23  C    2.455627   1.363088   0.000000
    24  C    1.481466   2.464506   1.467158   0.000000
    25  C    1.401782   4.152530   3.747886   2.473006   0.000000
    26  C    2.851215   4.852434   5.123269   4.331216   2.439699
    27  C    7.308876   9.272123   9.565606   8.686820   6.508356
    28  C    2.415723   4.990473   4.871219   3.745860   1.367786
    29  C    3.867018   2.373790   1.472402   2.611142   5.065425
    30  H    3.833561   1.083059   2.106696   3.439220   5.234907
    31  H    2.132151   4.764547   4.068932   2.625849   1.082020
    32  H    7.902512   9.911441  10.218808   9.316061   7.050252
    33  H    7.997717   9.781902  10.144668   9.351023   7.300105
    34  H    7.194915   9.347937   9.489506   8.496437   6.260778
    35  H    5.312611   4.289051   3.222411   3.860007   6.268907
    36  C    6.501035   4.998201   6.354877   7.124292   7.524374
    37  C    5.832817   4.690818   5.988245   6.588268   6.760130
    38  C    4.476820   3.523557   4.747049   5.244565   5.435809
    39  C    6.058113   4.310508   5.642283   6.514801   7.179076
    40  C    4.753716   2.999986   4.302568   5.145535   5.932748
    41  C    3.760863   2.412892   3.701919   4.339385   4.905528
    42  H    6.890428   5.026010   6.306709   7.251582   8.024797
    43  H    6.525679   5.585327   6.835847   7.355523   7.341394
    44  F    3.667573   6.333810   6.096406   4.839621   2.370124
    45  H    3.392117   4.030150   4.845861   4.675550   3.836642
    46  F    7.852334   6.326526   7.687939   8.486801   8.841089
    47  H    4.712244   2.847374   3.989298   4.897078   5.924941
    48  F    4.203705   3.907055   4.889525   5.107019   4.952031
                   26         27         28         29         30
    26  C    0.000000
    27  C    4.793692   0.000000
    28  C    1.422618   5.272412   0.000000
    29  C    6.591889  10.993022   6.270144   0.000000
    30  H    5.798063  10.135686   6.040424   2.501129   0.000000
    31  H    3.423104   7.079883   2.135037   5.195369   5.835090
    32  H    5.242348   1.094469   5.739918  11.668020  10.779781
    33  H    5.561094   1.096476   6.125442  11.550791  10.588755
    34  H    4.916205   1.095150   5.099065  10.881805  10.267186
    35  H    8.151626  12.452514   7.590103   1.919237   4.350560
    36  C    6.340234   9.363598   7.461092   7.175775   4.697039
    37  C    5.469856   8.776662   6.612825   6.955817   4.595624
    38  C    4.387366   8.226145   5.399182   5.829081   3.650331
    39  C    6.314023   9.424184   7.289054   6.364153   3.928194
    40  C    5.381373   8.888432   6.189253   5.115134   2.773929
    41  C    4.315523   8.276779   5.121155   4.764746   2.561073
    42  H    7.219348  10.062069   8.168870   6.884018   4.530444
    43  H    5.866955   8.966755   7.067869   7.819543   5.521018
    44  F    2.416684   4.837745   1.381931   7.434245   7.395123
    45  H    2.138646   5.831101   3.375585   6.250156   4.697523
    46  F    7.507774  10.132592   8.699548   8.441432   5.943692
    47  H    5.705934   9.140407   6.336577   4.660529   2.585303
    48  F    3.839311   7.913274   4.801756   6.067208   4.265295
                   31         32         33         34         35
    31  H    0.000000
    32  H    7.610459   0.000000
    33  H    7.900419   1.777921   0.000000
    34  H    6.685323   1.787406   1.775660   0.000000
    35  H    6.090741  13.138330  13.040141  12.219725   0.000000
    36  C    8.531069   9.837481   9.535687   9.969200   9.047322
    37  C    7.781564   9.150512   9.084428   9.380589   8.848346
    38  C    6.436015   8.642987   8.651184   8.702292   7.726323
    39  C    8.128020  10.031407   9.563155   9.918783   8.197820
    40  C    6.836451   9.545322   9.127424   9.254986   6.979626
    41  C    5.850575   8.845370   8.666660   8.623019   6.683907
    42  H    8.943422  10.718898  10.105160  10.556143   8.633059
    43  H    8.368333   9.219504   9.293660   9.645668   9.690448
    44  F    2.608671   5.185733   5.802162   4.477108   8.585139
    45  H    4.918216   6.326734   6.321773   6.231385   8.067757
    46  F    9.862038  10.556268  10.212596  10.827998  10.282649
    47  H    6.733619   9.886536   9.347395   9.407313   6.436495
    48  F    5.928181   8.201275   8.483706   8.365465   7.884914
                   36         37         38         39         40
    36  C    0.000000
    37  C    1.387541   0.000000
    38  C    2.395960   1.385002   0.000000
    39  C    1.389236   2.414132   2.782162   0.000000
    40  C    2.397606   2.777109   2.402445   1.391193   0.000000
    41  C    2.791262   2.423775   1.399484   2.429746   1.398629
    42  H    2.140942   3.388136   3.862556   1.080486   2.158432
    43  H    2.148057   1.079643   2.138377   3.393618   3.856745
    44  F    8.719687   7.832512   6.670728   8.599768   7.536334
    45  H    4.216467   3.437120   2.498460   4.267900   3.532829
    46  F    1.363884   2.374087   3.637224   2.383648   3.646193
    47  H    3.381715   3.859086   3.380405   2.148766   1.082155
    48  F    3.637304   2.369494   1.367044   4.148906   3.657864
                   41         42         43         44         45
    41  C    0.000000
    42  H    3.413127   0.000000
    43  H    3.398583   4.279639   0.000000
    44  F    6.477698   9.470732   8.199210   0.000000
    45  H    2.555257   5.202905   3.962317   4.543083   0.000000
    46  F    4.155117   2.616263   2.616358   9.914463   5.377392
    47  H    2.140842   2.493421   4.938701   7.676191   4.096706
    48  F    2.397064   5.229185   2.595588   5.973509   2.442877
                   46         47         48
    46  F    0.000000
    47  H    4.527466   0.000000
    48  F    4.743580   4.531752   0.000000
 Stoichiometry    C21H18F3N3O3
 Framework group  C1[X(C21H18F3N3O3)]
 Deg. of freedom   138
 Full point group                 C1      NOp   1
 Largest Abelian subgroup         C1      NOp   1
 Largest concise Abelian subgroup C1      NOp   1
                         Standard orientation:                         
 ---------------------------------------------------------------------
 Center     Atomic      Atomic             Coordinates (Angstroms)
 Number     Number       Type             X           Y           Z
 ---------------------------------------------------------------------
      1          7           0       -2.993346   -0.688308    0.674550
      2          6           0       -3.275265    0.706432    1.071658
      3          6           0       -3.840399    1.491477   -0.128193
      4          7           0       -5.057920    0.776450   -0.582995
      5          6           0       -4.205346   -1.381467    0.175371
      6          6           0       -4.785319   -0.614532   -1.032160
      7          1           0       -5.557904    1.304729   -1.305615
      8          1           0       -2.372514    1.161835    1.485922
      9          1           0       -4.051772    0.676944    1.845008
     10          1           0       -4.960066   -1.375657    0.970805
     11          1           0       -3.953222   -2.403851   -0.087964
     12          1           0       -4.036470   -0.653410   -1.845107
     13          1           0       -4.123618    2.501428    0.186859
     14          1           0       -3.059401    1.566912   -0.906994
     15          8           0        2.594824   -3.736000   -0.038766
     16          8           0        5.188910   -2.977120   -0.316364
     17          8           0        5.652548   -0.746962   -0.448120
     18          7           0        1.721906    0.321732   -0.054029
     19          6           0       -0.658414   -0.211334    0.198351
     20          6           0        0.672240   -0.617962    0.093791
     21          6           0        0.994090   -1.984848    0.103448
     22          6           0        3.008953   -0.133242   -0.178678
     23          6           0        3.372889   -1.446841   -0.182853
     24          6           0        2.371687   -2.510009   -0.042066
     25          6           0       -0.051770   -2.906635    0.250004
     26          6           0       -1.705131   -1.120009    0.412778
     27          6           0       -6.100183   -1.255635   -1.496306
     28          6           0       -1.346045   -2.496559    0.415921
     29          6           0        4.823085   -1.657004   -0.326837
     30          1           0        3.784643    0.617549   -0.266054
     31          1           0        0.202656   -3.958237    0.262929
     32          1           0       -6.830931   -1.209905   -0.682808
     33          1           0       -6.508437   -0.718863   -2.360866
     34          1           0       -5.941370   -2.299995   -1.785172
     35          1           0        6.180697   -3.010611   -0.416888
     36          6           0        1.156328    4.508889   -0.158295
     37          6           0        0.669259    3.781625    0.918330
     38          6           0        0.846143    2.408372    0.951768
     39          6           0        1.800931    3.873390   -1.212147
     40          6           0        1.953747    2.491024   -1.178519
     41          6           0        1.488031    1.738112   -0.095747
     42          1           0        2.165314    4.456179   -2.045833
     43          1           0        0.170217    4.279328    1.736180
     44          9           0       -2.332436   -3.446036    0.603695
     45          1           0       -0.893978    0.833235    0.095483
     46          9           0        0.989764    5.862407   -0.178900
     47          1           0        2.434316    1.977715   -2.001092
     48          9           0        0.346009    1.704379    2.011518
 ---------------------------------------------------------------------
 Rotational constants (GHZ):      0.1740357      0.1168480      0.0751269
 Standard basis: LANL2DZ (5D, 7F)
 There are   306 symmetry adapted cartesian basis functions of A   symmetry.
 There are   306 symmetry adapted basis functions of A   symmetry.
   306 basis functions,   822 primitive gaussians,   306 cartesian basis functions
   108 alpha electrons      108 beta electrons
       nuclear repulsion energy      2932.0794230068 Hartrees.
 NAtoms=   48 NActive=   48 NUniq=   48 SFac= 1.00D+00 NAtFMM=   60 NAOKFM=F Big=F
 Integral buffers will be    131072 words long.
 Raffenetti 2 integral format.
 Two-electron integral symmetry is turned on.
 One-electron integrals computed using PRISM.
 PrsmSu:  requested number of processors reduced to:   8 ShMem   1 Linda.
   1 Symmetry operations used in ECPInt.
 ECPInt:  NShTT=   17391 NPrTT=  137397 LenC2=   15145 LenP2D=   63267.
 LDataN:  DoStor=T MaxTD1= 2 Len=   12
 Number of processors reduced to   7 by ecpmxn.
 NBasis=   306 RedAO= T EigKep=  2.03D-04  NBF=   306
 NBsUse=   306 1.00D-06 EigRej= -1.00D+00 NBFU=   306
 ExpMin= 1.15D-01 ExpMax= 1.00D+04 ExpMxC= 3.50D+02 IAcc=3 IRadAn=         5 AccDes= 0.00D+00
 Harris functional with IExCor= 1009 and IRadAn=       5 diagonalized for initial guess.
 HarFok:  IExCor= 1009 AccDes= 0.00D+00 IRadAn=         5 IDoV= 1 UseB2=F ITyADJ=14
 ICtDFT=  3500011 ScaDFX=  1.000000  1.000000  1.000000  1.000000
 FoFCou: FMM=F IPFlag=           0 FMFlag=      100000 FMFlg1=           0
         NFxFlg=           0 DoJE=T BraDBF=F KetDBF=T FulRan=T
         wScrn=  0.000000 ICntrl=     500 IOpCl=  0 I1Cent=   200000004 NGrid=           0
         NMat0=    1 NMatS0=      1 NMatT0=    0 NMatD0=    1 NMtDS0=    0 NMtDT0=    0
 Petite list used in FoFCou.
 Requested convergence on RMS density matrix=1.00D-08 within 128 cycles.
 Requested convergence on MAX density matrix=1.00D-06.
 Requested convergence on             energy=1.00D-06.
 No special actions if energy rises.
 Integral accuracy reduced to 1.0D-05 until final iterations.
 EnCoef did     2 forward-backward iterations
 Initial convergence to 1.0D-05 achieved.  Increase integral accuracy.
 SCF Done:  E(RM06) =  -1499.45325050     A.U. after   18 cycles
            NFock= 18  Conv=0.56D-08     -V/T= 2.0047

 **********************************************************************

            Population analysis using the SCF density.

 **********************************************************************

 Orbital symmetries:
       Occupied  (A) (A) (A) (A) (A) (A) (A) (A) (A) (A) (A) (A)
                 (A) (A) (A) (A) (A) (A) (A) (A) (A) (A) (A) (A)
                 (A) (A) (A) (A) (A) (A) (A) (A) (A) (A) (A) (A)
                 (A) (A) (A) (A) (A) (A) (A) (A) (A) (A) (A) (A)
                 (A) (A) (A) (A) (A) (A) (A) (A) (A) (A) (A) (A)
                 (A) (A) (A) (A) (A) (A) (A) (A) (A) (A) (A) (A)
                 (A) (A) (A) (A) (A) (A) (A) (A) (A) (A) (A) (A)
                 (A) (A) (A) (A) (A) (A) (A) (A) (A) (A) (A) (A)
                 (A) (A) (A) (A) (A) (A) (A) (A) (A) (A) (A) (A)
       Virtual   (A) (A) (A) (A) (A) (A) (A) (A) (A) (A) (A) (A)
                 (A) (A) (A) (A) (A) (A) (A) (A) (A) (A) (A) (A)
                 (A) (A) (A) (A) (A) (A) (A) (A) (A) (A) (A) (A)
                 (A) (A) (A) (A) (A) (A) (A) (A) (A) (A) (A) (A)
                 (A) (A) (A) (A) (A) (A) (A) (A) (A) (A) (A) (A)
                 (A) (A) (A) (A) (A) (A) (A) (A) (A) (A) (A) (A)
                 (A) (A) (A) (A) (A) (A) (A) (A) (A) (A) (A) (A)
                 (A) (A) (A) (A) (A) (A) (A) (A) (A) (A) (A) (A)
                 (A) (A) (A) (A) (A) (A) (A) (A) (A) (A) (A) (A)
                 (A) (A) (A) (A) (A) (A) (A) (A) (A) (A) (A) (A)
                 (A) (A) (A) (A) (A) (A) (A) (A) (A) (A) (A) (A)
                 (A) (A) (A) (A) (A) (A) (A) (A) (A) (A) (A) (A)
                 (A) (A) (A) (A) (A) (A) (A) (A) (A) (A) (A) (A)
                 (A) (A) (A) (A) (A) (A) (A) (A) (A) (A) (A) (A)
                 (A) (A) (A) (A) (A) (A) (A) (A) (A) (A) (A) (A)
                 (A) (A) (A) (A) (A) (A) (A) (A) (A) (A) (A) (A)
                 (A) (A) (A) (A) (A) (A)
 The electronic state is 1-A.
 Alpha  occ. eigenvalues --  -24.84309 -24.83573 -24.80365 -19.26521 -19.22099
 Alpha  occ. eigenvalues --  -19.19150 -14.50040 -14.43257 -14.39843 -10.40630
 Alpha  occ. eigenvalues --  -10.40211 -10.39714 -10.35892 -10.35057 -10.34464
 Alpha  occ. eigenvalues --  -10.34058 -10.33539 -10.33350 -10.31968 -10.31438
 Alpha  occ. eigenvalues --  -10.31074 -10.29607 -10.29296 -10.29111 -10.28566
 Alpha  occ. eigenvalues --  -10.28013 -10.27384 -10.27326 -10.27203 -10.24512
 Alpha  occ. eigenvalues --   -1.30328  -1.29655  -1.25953  -1.13824  -1.05260
 Alpha  occ. eigenvalues --   -1.05063  -1.04282  -0.98719  -0.93909  -0.92699
 Alpha  occ. eigenvalues --   -0.89022  -0.85601  -0.82815  -0.81537  -0.80687
 Alpha  occ. eigenvalues --   -0.79678  -0.78655  -0.73673  -0.71815  -0.70634
 Alpha  occ. eigenvalues --   -0.69467  -0.68639  -0.67486  -0.64851  -0.64153
 Alpha  occ. eigenvalues --   -0.62873  -0.61799  -0.60426  -0.59546  -0.58240
 Alpha  occ. eigenvalues --   -0.57350  -0.56883  -0.55583  -0.53818  -0.53160
 Alpha  occ. eigenvalues --   -0.52574  -0.51271  -0.51103  -0.50524  -0.50098
 Alpha  occ. eigenvalues --   -0.49734  -0.49363  -0.49120  -0.48901  -0.48256
 Alpha  occ. eigenvalues --   -0.48183  -0.47293  -0.47028  -0.46637  -0.45873
 Alpha  occ. eigenvalues --   -0.45120  -0.44303  -0.44063  -0.43489  -0.43087
 Alpha  occ. eigenvalues --   -0.42122  -0.41873  -0.41802  -0.40981  -0.40180
 Alpha  occ. eigenvalues --   -0.39924  -0.39622  -0.39539  -0.38630  -0.37984
 Alpha  occ. eigenvalues --   -0.36901  -0.36574  -0.35623  -0.33254  -0.32293
 Alpha  occ. eigenvalues --   -0.31516  -0.31328  -0.29678  -0.29088  -0.25077
 Alpha  occ. eigenvalues --   -0.24848  -0.24547  -0.22003
 Alpha virt. eigenvalues --   -0.06531  -0.05781  -0.04703  -0.04211   0.00030
 Alpha virt. eigenvalues --    0.02800   0.04939   0.07971   0.08761   0.09207
 Alpha virt. eigenvalues --    0.09617   0.10215   0.10435   0.10791   0.12267
 Alpha virt. eigenvalues --    0.12659   0.13193   0.13700   0.14071   0.14794
 Alpha virt. eigenvalues --    0.15129   0.15754   0.16010   0.16673   0.17138
 Alpha virt. eigenvalues --    0.17451   0.17705   0.18442   0.18660   0.19009
 Alpha virt. eigenvalues --    0.19520   0.19830   0.20074   0.21174   0.21186
 Alpha virt. eigenvalues --    0.21662   0.21762   0.22347   0.22878   0.23321
 Alpha virt. eigenvalues --    0.23893   0.24669   0.25043   0.25262   0.25414
 Alpha virt. eigenvalues --    0.26216   0.27142   0.27594   0.27787   0.28157
 Alpha virt. eigenvalues --    0.28659   0.29202   0.29644   0.29828   0.30570
 Alpha virt. eigenvalues --    0.30858   0.31524   0.31885   0.32056   0.32618
 Alpha virt. eigenvalues --    0.33427   0.34165   0.34506   0.34871   0.35180
 Alpha virt. eigenvalues --    0.35270   0.35973   0.36426   0.36499   0.36860
 Alpha virt. eigenvalues --    0.37758   0.38548   0.38934   0.39158   0.39479
 Alpha virt. eigenvalues --    0.39734   0.40137   0.40242   0.40683   0.41298
 Alpha virt. eigenvalues --    0.42045   0.42661   0.42881   0.43868   0.44253
 Alpha virt. eigenvalues --    0.44387   0.45223   0.46244   0.46576   0.47083
 Alpha virt. eigenvalues --    0.47774   0.48653   0.48784   0.49023   0.49668
 Alpha virt. eigenvalues --    0.50274   0.50659   0.51592   0.52070   0.52595
 Alpha virt. eigenvalues --    0.53149   0.54295   0.55226   0.56066   0.57047
 Alpha virt. eigenvalues --    0.58534   0.58616   0.59037   0.59944   0.60772
 Alpha virt. eigenvalues --    0.62240   0.62560   0.63710   0.64023   0.64611
 Alpha virt. eigenvalues --    0.65846   0.67093   0.67523   0.69170   0.69928
 Alpha virt. eigenvalues --    0.70361   0.71658   0.73028   0.73606   0.74698
 Alpha virt. eigenvalues --    0.75604   0.77047   0.78726   0.79950   0.83432
 Alpha virt. eigenvalues --    0.85322   0.86757   0.87493   0.87866   0.89428
 Alpha virt. eigenvalues --    0.89855   0.91295   0.92664   0.93140   0.94405
 Alpha virt. eigenvalues --    0.94674   0.96073   0.97534   0.98554   0.99484
 Alpha virt. eigenvalues --    1.00132   1.01025   1.02749   1.03898   1.04424
 Alpha virt. eigenvalues --    1.04896   1.05631   1.06830   1.07627   1.08452
 Alpha virt. eigenvalues --    1.09358   1.10513   1.10705   1.11244   1.11963
 Alpha virt. eigenvalues --    1.12426   1.13232   1.13528   1.13997   1.15865
 Alpha virt. eigenvalues --    1.17856   1.19070   1.20700   1.21474   1.24110
 Alpha virt. eigenvalues --    1.26582   1.27591   1.28370   1.30222   1.32192
 Alpha virt. eigenvalues --    1.33871   1.34718   1.39697   1.40081   1.41334
 Alpha virt. eigenvalues --    1.43289   1.46060   1.48215   1.50853   1.53001
 Alpha virt. eigenvalues --    1.56697   1.58863   1.66457   1.70028   1.74361
 Alpha virt. eigenvalues --    1.80116   1.85184   1.88793   1.97554   2.00853
 Alpha virt. eigenvalues --    2.15661   2.21433   2.24000
          Condensed to atoms (all electrons):
               1          2          3          4          5          6
     1  N    6.892443   0.304036  -0.071631  -0.013542   0.256761  -0.065548
     2  C    0.304036   5.403204   0.241564  -0.066490  -0.047043  -0.007689
     3  C   -0.071631   0.241564   5.393204   0.309846   0.007643  -0.071475
     4  N   -0.013542  -0.066490   0.309846   6.832812  -0.061725   0.305327
     5  C    0.256761  -0.047043   0.007643  -0.061725   5.457097   0.252458
     6  C   -0.065548  -0.007689  -0.071475   0.305327   0.252458   5.203942
     7  H   -0.000641   0.005254  -0.039678   0.318602   0.006708  -0.040723
     8  H   -0.034003   0.342134  -0.032975   0.003469   0.004428   0.000149
     9  H   -0.049824   0.359514  -0.047438   0.002547  -0.009118  -0.002270
    10  H   -0.049463  -0.003516  -0.004562  -0.001454   0.330299  -0.045611
    11  H   -0.034428   0.006518  -0.000568   0.003582   0.348300  -0.024609
    12  H    0.002496  -0.000596  -0.005338  -0.082614  -0.057620   0.338266
    13  H    0.005412  -0.017423   0.352525  -0.037142  -0.001730   0.008115
    14  H   -0.005607  -0.055796   0.353461  -0.065503  -0.001320  -0.009007
    15  O    0.000000   0.000000   0.000000   0.000000   0.000000   0.000000
    16  O    0.000000   0.000000   0.000000   0.000000   0.000000   0.000000
    17  O    0.000000   0.000000   0.000000   0.000000   0.000000   0.000000
    18  N    0.000002   0.000041  -0.000006   0.000000   0.000004  -0.000001
    19  C   -0.065914   0.020203   0.001617  -0.000621   0.008553  -0.001257
    20  C   -0.007911  -0.002675   0.000512  -0.000078   0.000732  -0.000317
    21  C    0.002294  -0.000273   0.000063  -0.000001  -0.000447   0.000068
    22  C   -0.000007   0.000022  -0.000002   0.000000   0.000001   0.000000
    23  C   -0.000001   0.000000   0.000000   0.000000  -0.000001   0.000000
    24  C    0.000068  -0.000021   0.000001   0.000000   0.000004   0.000000
    25  C    0.010264   0.000447  -0.000017   0.000003  -0.003447   0.000773
    26  C    0.158940  -0.091515  -0.017583  -0.001282  -0.015916  -0.021461
    27  C    0.007753  -0.002646   0.008417  -0.054959  -0.046125   0.260352
    28  C   -0.001158   0.003952  -0.001547   0.000090  -0.023966   0.006623
    29  C    0.000000   0.000000   0.000000   0.000000   0.000000   0.000000
    30  H    0.000000   0.000000   0.000000   0.000000   0.000000   0.000000
    31  H   -0.000067  -0.000001   0.000000   0.000000   0.000022  -0.000004
    32  H    0.000015  -0.000027   0.000319   0.001571  -0.007485  -0.039700
    33  H   -0.000146   0.000016  -0.000079  -0.004353   0.004424  -0.025028
    34  H    0.000016   0.000121  -0.000310   0.003420  -0.003975  -0.025903
    35  H    0.000000   0.000000   0.000000   0.000000   0.000000   0.000000
    36  C   -0.000001   0.000005   0.000017   0.000000   0.000000   0.000000
    37  C   -0.000014   0.000295   0.000189   0.000001   0.000000   0.000001
    38  C   -0.000109   0.000260   0.000006   0.000002  -0.000001   0.000000
    39  C    0.000000  -0.000005   0.000000   0.000000   0.000000   0.000000
    40  C    0.000009  -0.000024  -0.000012   0.000000   0.000000   0.000000
    41  C    0.000017  -0.000082  -0.000114   0.000000   0.000000  -0.000004
    42  H    0.000000   0.000000   0.000000   0.000000   0.000000   0.000000
    43  H    0.000000  -0.000007   0.000002   0.000000   0.000000   0.000000
    44  F    0.005154  -0.000133   0.000007  -0.000004  -0.005408  -0.000141
    45  H   -0.007183   0.004561  -0.002734  -0.000011   0.000618  -0.000509
    46  F    0.000000   0.000000   0.000000   0.000000   0.000000   0.000000
    47  H    0.000000   0.000000   0.000000   0.000000   0.000000   0.000000
    48  F    0.000006  -0.000769   0.000016   0.000000  -0.000002   0.000000
               7          8          9         10         11         12
     1  N   -0.000641  -0.034003  -0.049824  -0.049463  -0.034428   0.002496
     2  C    0.005254   0.342134   0.359514  -0.003516   0.006518  -0.000596
     3  C   -0.039678  -0.032975  -0.047438  -0.004562  -0.000568  -0.005338
     4  N    0.318602   0.003469   0.002547  -0.001454   0.003582  -0.082614
     5  C    0.006708   0.004428  -0.009118   0.330299   0.348300  -0.057620
     6  C   -0.040723   0.000149  -0.002270  -0.045611  -0.024609   0.338266
     7  H    0.476191  -0.000111   0.000073  -0.000049  -0.000105  -0.000521
     8  H   -0.000111   0.510015  -0.015696   0.000347  -0.000066   0.000160
     9  H    0.000073  -0.015696   0.491728   0.006360   0.000179   0.000236
    10  H   -0.000049   0.000347   0.006360   0.549176  -0.016685   0.005773
    11  H   -0.000105  -0.000066   0.000179  -0.016685   0.461062  -0.000670
    12  H   -0.000521   0.000160   0.000236   0.005773  -0.000670   0.637839
    13  H   -0.004145   0.000575  -0.002931   0.000104  -0.000003  -0.000090
    14  H   -0.000117   0.000876   0.004039   0.000184   0.000102   0.009969
    15  O    0.000000   0.000000   0.000000   0.000000   0.000000   0.000000
    16  O    0.000000   0.000000   0.000000   0.000000   0.000000   0.000000
    17  O    0.000000   0.000000   0.000000   0.000000   0.000000   0.000000
    18  N    0.000000  -0.000006   0.000000   0.000000   0.000000   0.000000
    19  C   -0.000059   0.012287   0.001107   0.000011   0.000728  -0.000020
    20  C   -0.000001   0.003754   0.000153   0.000006   0.000157   0.000131
    21  C    0.000000   0.000206  -0.000012   0.000000   0.000019  -0.000001
    22  C    0.000000   0.000002   0.000000   0.000000   0.000000   0.000000
    23  C    0.000000  -0.000001   0.000000   0.000000   0.000000   0.000000
    24  C    0.000000   0.000002   0.000000   0.000000   0.000000   0.000000
    25  C    0.000000  -0.000090  -0.000007  -0.000018  -0.000694  -0.000024
    26  C    0.000175  -0.016727   0.010059   0.011452  -0.002363   0.007272
    27  C   -0.004913  -0.000019   0.000176  -0.005637  -0.000063  -0.050622
    28  C    0.000007  -0.002112  -0.000200  -0.000644  -0.003107  -0.000076
    29  C    0.000000   0.000000   0.000000   0.000000   0.000000   0.000000
    30  H    0.000000   0.000000   0.000000   0.000000   0.000000   0.000000
    31  H    0.000000   0.000000   0.000000   0.000000   0.000004   0.000000
    32  H   -0.000741   0.000000   0.000010   0.004621   0.000273   0.004178
    33  H    0.003003   0.000000  -0.000001  -0.000029  -0.000071  -0.003355
    34  H    0.000075   0.000000   0.000000   0.000317   0.001312   0.001322
    35  H    0.000000   0.000000   0.000000   0.000000   0.000000   0.000000
    36  C    0.000000   0.000014   0.000000   0.000000   0.000000   0.000000
    37  C    0.000000  -0.000071  -0.000006   0.000000   0.000000   0.000000
    38  C    0.000000   0.000246  -0.000002   0.000000   0.000000   0.000000
    39  C    0.000000   0.000001   0.000000   0.000000   0.000000   0.000000
    40  C    0.000000   0.000006   0.000000   0.000000   0.000000   0.000000
    41  C    0.000000  -0.000267   0.000008   0.000000   0.000000   0.000001
    42  H    0.000000   0.000000   0.000000   0.000000   0.000000   0.000000
    43  H    0.000000  -0.000002   0.000000   0.000000   0.000000   0.000000
    44  F    0.000000  -0.000005   0.000000  -0.000451   0.005264   0.000058
    45  H    0.000003   0.002188   0.000283   0.000011  -0.000019   0.000115
    46  F    0.000000   0.000000   0.000000   0.000000   0.000000   0.000000
    47  H    0.000000   0.000000   0.000000   0.000000   0.000000   0.000000
    48  F    0.000000   0.001687   0.000001   0.000000   0.000000   0.000000
              13         14         15         16         17         18
     1  N    0.005412  -0.005607   0.000000   0.000000   0.000000   0.000002
     2  C   -0.017423  -0.055796   0.000000   0.000000   0.000000   0.000041
     3  C    0.352525   0.353461   0.000000   0.000000   0.000000  -0.000006
     4  N   -0.037142  -0.065503   0.000000   0.000000   0.000000   0.000000
     5  C   -0.001730  -0.001320   0.000000   0.000000   0.000000   0.000004
     6  C    0.008115  -0.009007   0.000000   0.000000   0.000000  -0.000001
     7  H   -0.004145  -0.000117   0.000000   0.000000   0.000000   0.000000
     8  H    0.000575   0.000876   0.000000   0.000000   0.000000  -0.000006
     9  H   -0.002931   0.004039   0.000000   0.000000   0.000000   0.000000
    10  H    0.000104   0.000184   0.000000   0.000000   0.000000   0.000000
    11  H   -0.000003   0.000102   0.000000   0.000000   0.000000   0.000000
    12  H   -0.000090   0.009969   0.000000   0.000000   0.000000   0.000000
    13  H    0.518490  -0.034793   0.000000   0.000000   0.000000   0.000000
    14  H   -0.034793   0.606259   0.000000   0.000000   0.000000  -0.000004
    15  O    0.000000   0.000000   7.784352  -0.006824   0.000005   0.000258
    16  O    0.000000   0.000000  -0.006824   8.078794  -0.083306   0.000025
    17  O    0.000000   0.000000   0.000005  -0.083306   7.883564   0.001006
    18  N    0.000000  -0.000004   0.000258   0.000025   0.001006   6.729223
    19  C   -0.000310   0.002935  -0.000259  -0.000004  -0.000018  -0.052722
    20  C   -0.000003   0.001016  -0.007814  -0.000385  -0.000548   0.244216
    21  C    0.000000   0.000000  -0.123854  -0.000772   0.000031  -0.002552
    22  C    0.000000   0.000002   0.001477  -0.005166   0.007826   0.390492
    23  C    0.000000   0.000000  -0.071110  -0.027962  -0.063185  -0.061548
    24  C    0.000000   0.000000   0.674220   0.001379  -0.003864  -0.008273
    25  C    0.000000  -0.000006   0.022570   0.000150   0.000024   0.012270
    26  C    0.000621   0.002390   0.000039   0.000000   0.000000  -0.006381
    27  C   -0.000502   0.000455   0.000000   0.000000   0.000000   0.000000
    28  C    0.000001  -0.000061   0.001068   0.000001   0.000000   0.000912
    29  C    0.000000   0.000000  -0.007814   0.248938   0.585478   0.008979
    30  H    0.000000   0.000000  -0.000055   0.000346   0.013359  -0.036921
    31  H    0.000000   0.000000   0.011170   0.000000   0.000000  -0.000056
    32  H    0.000004   0.000009   0.000000   0.000000   0.000000   0.000000
    33  H    0.000000  -0.000020   0.000000   0.000000   0.000000   0.000000
    34  H    0.000001   0.000011   0.000000   0.000000   0.000000   0.000000
    35  H    0.000000   0.000000   0.000403   0.245206   0.003141   0.000001
    36  C   -0.000001  -0.000007   0.000000   0.000000   0.000000   0.000282
    37  C    0.000000  -0.000007   0.000000   0.000000   0.000000   0.006191
    38  C    0.000005  -0.000019   0.000000   0.000000  -0.000023  -0.039976
    39  C    0.000000   0.000002   0.000000   0.000000   0.000011   0.006172
    40  C    0.000000   0.000019  -0.000001   0.000001   0.000173  -0.013619
    41  C    0.000002   0.000087   0.000003   0.000004   0.000212   0.143123
    42  H    0.000000   0.000000   0.000000   0.000000   0.000000  -0.000089
    43  H   -0.000001   0.000000   0.000000   0.000000   0.000000  -0.000082
    44  F    0.000000   0.000000   0.000004   0.000000   0.000000  -0.000001
    45  H    0.000151   0.001748   0.000001   0.000000   0.000000  -0.003461
    46  F    0.000000   0.000000   0.000000   0.000000   0.000000  -0.000001
    47  H    0.000000   0.000000   0.000000   0.000000   0.000005  -0.007735
    48  F    0.000000  -0.000002   0.000000   0.000000   0.000000   0.001123
              19         20         21         22         23         24
     1  N   -0.065914  -0.007911   0.002294  -0.000007  -0.000001   0.000068
     2  C    0.020203  -0.002675  -0.000273   0.000022   0.000000  -0.000021
     3  C    0.001617   0.000512   0.000063  -0.000002   0.000000   0.000001
     4  N   -0.000621  -0.000078  -0.000001   0.000000   0.000000   0.000000
     5  C    0.008553   0.000732  -0.000447   0.000001  -0.000001   0.000004
     6  C   -0.001257  -0.000317   0.000068   0.000000   0.000000   0.000000
     7  H   -0.000059  -0.000001   0.000000   0.000000   0.000000   0.000000
     8  H    0.012287   0.003754   0.000206   0.000002  -0.000001   0.000002
     9  H    0.001107   0.000153  -0.000012   0.000000   0.000000   0.000000
    10  H    0.000011   0.000006   0.000000   0.000000   0.000000   0.000000
    11  H    0.000728   0.000157   0.000019   0.000000   0.000000   0.000000
    12  H   -0.000020   0.000131  -0.000001   0.000000   0.000000   0.000000
    13  H   -0.000310  -0.000003   0.000000   0.000000   0.000000   0.000000
    14  H    0.002935   0.001016   0.000000   0.000002   0.000000   0.000000
    15  O   -0.000259  -0.007814  -0.123854   0.001477  -0.071110   0.674220
    16  O   -0.000004  -0.000385  -0.000772  -0.005166  -0.027962   0.001379
    17  O   -0.000018  -0.000548   0.000031   0.007826  -0.063185  -0.003864
    18  N   -0.052722   0.244216  -0.002552   0.390492  -0.061548  -0.008273
    19  C    5.811714   0.433569  -0.173311   0.005056  -0.004017  -0.000566
    20  C    0.433569   5.363934   0.137578  -0.118888   0.031881  -0.021981
    21  C   -0.173311   0.137578   5.801064   0.015785  -0.169459   0.089994
    22  C    0.005056  -0.118888   0.015785   5.572847   0.307749  -0.074137
    23  C   -0.004017   0.031881  -0.169459   0.307749   5.875571   0.040949
    24  C   -0.000566  -0.021981   0.089994  -0.074137   0.040949   5.241738
    25  C   -0.099765  -0.151756   0.449444   0.005822  -0.028568  -0.042341
    26  C    0.438154  -0.064121  -0.119011  -0.000541   0.000237   0.000781
    27  C    0.000021  -0.000001   0.000002   0.000000   0.000000   0.000000
    28  C   -0.177802  -0.085227  -0.075097   0.000444  -0.001809  -0.020206
    29  C   -0.000531  -0.001117  -0.024681  -0.026578   0.081118  -0.035372
    30  H   -0.000197  -0.006991   0.000567   0.307801  -0.011556   0.003849
    31  H    0.001160   0.001973  -0.011623  -0.000196   0.002709   0.004112
    32  H    0.000002   0.000000   0.000000   0.000000   0.000000   0.000000
    33  H   -0.000001   0.000000   0.000000   0.000000   0.000000   0.000000
    34  H    0.000004   0.000000   0.000000   0.000000   0.000000   0.000000
    35  H    0.000000   0.000007   0.000060  -0.000417   0.004940   0.001816
    36  C   -0.000231  -0.000024  -0.000002  -0.000221  -0.000014   0.000001
    37  C   -0.004140   0.000369  -0.000016   0.000368  -0.000029  -0.000008
    38  C    0.006206  -0.031827  -0.004930  -0.002031  -0.000243  -0.000187
    39  C   -0.000356   0.001700   0.000135  -0.004330  -0.000180   0.000005
    40  C   -0.006361  -0.000919   0.003336  -0.003384  -0.001044   0.000180
    41  C    0.013525  -0.066925  -0.000209  -0.093550   0.000302  -0.000513
    42  H    0.000009  -0.000015   0.000000   0.000015   0.000001   0.000000
    43  H    0.000086  -0.000077  -0.000001   0.000000   0.000000   0.000000
    44  F    0.000811  -0.001021  -0.001599   0.000000  -0.000004   0.000018
    45  H    0.284140  -0.025884  -0.004971   0.001195  -0.000016  -0.000128
    46  F    0.000001  -0.000001   0.000000  -0.000001   0.000000   0.000000
    47  H    0.000259   0.000129  -0.000206   0.001906   0.000434   0.000005
    48  F   -0.007982   0.011085   0.002011   0.000649  -0.000114   0.000069
              25         26         27         28         29         30
     1  N    0.010264   0.158940   0.007753  -0.001158   0.000000   0.000000
     2  C    0.000447  -0.091515  -0.002646   0.003952   0.000000   0.000000
     3  C   -0.000017  -0.017583   0.008417  -0.001547   0.000000   0.000000
     4  N    0.000003  -0.001282  -0.054959   0.000090   0.000000   0.000000
     5  C   -0.003447  -0.015916  -0.046125  -0.023966   0.000000   0.000000
     6  C    0.000773  -0.021461   0.260352   0.006623   0.000000   0.000000
     7  H    0.000000   0.000175  -0.004913   0.000007   0.000000   0.000000
     8  H   -0.000090  -0.016727  -0.000019  -0.002112   0.000000   0.000000
     9  H   -0.000007   0.010059   0.000176  -0.000200   0.000000   0.000000
    10  H   -0.000018   0.011452  -0.005637  -0.000644   0.000000   0.000000
    11  H   -0.000694  -0.002363  -0.000063  -0.003107   0.000000   0.000000
    12  H   -0.000024   0.007272  -0.050622  -0.000076   0.000000   0.000000
    13  H    0.000000   0.000621  -0.000502   0.000001   0.000000   0.000000
    14  H   -0.000006   0.002390   0.000455  -0.000061   0.000000   0.000000
    15  O    0.022570   0.000039   0.000000   0.001068  -0.007814  -0.000055
    16  O    0.000150   0.000000   0.000000   0.000001   0.248938   0.000346
[...]
    17  O    0.000022   0.000000   0.000000   0.000000   0.587207   0.011997
    18  N    0.011995  -0.007249   0.000000   0.001002   0.008562  -0.037273
    19  C   -0.091350   0.405136  -0.000065  -0.173740  -0.000419  -0.000092
    20  C   -0.143461  -0.063148  -0.000005  -0.078394   0.000104  -0.006775
    21  C    0.443617  -0.111605   0.000003  -0.066876  -0.024557   0.000437
    22  C    0.006629  -0.000578   0.000000   0.000454  -0.029929   0.308802
    23  C   -0.023892   0.000282   0.000000  -0.001529   0.083635  -0.009512
    24  C   -0.042989   0.001106   0.000000  -0.019830  -0.033708   0.003763
    25  C    5.845724  -0.135568  -0.000016   0.417094   0.000225   0.000074
    26  C   -0.135568   5.329463  -0.001290   0.279798  -0.000014  -0.000014
    27  C   -0.000016  -0.001290   5.493215  -0.000119   0.000000   0.000000
    28  C    0.417094   0.279798  -0.000119   5.188732   0.000007   0.000003
    29  C    0.000225  -0.000014   0.000000   0.000007   4.992938  -0.006295
    30  H    0.000074  -0.000014   0.000000   0.000003  -0.006295   0.435447
    31  H    0.317573  -0.001153   0.000000  -0.037419  -0.000010   0.000000
    32  H    0.000000   0.000043   0.372432   0.000000   0.000000   0.000000
    33  H    0.000000   0.000006   0.368370   0.000002   0.000000   0.000000
    34  H   -0.000001   0.000073   0.362524  -0.000033   0.000000   0.000000
    35  H   -0.000003   0.000000   0.000000   0.000000  -0.028701  -0.000001
    36  C    0.000000  -0.000044   0.000000   0.000000   0.000000  -0.000018
    37  C    0.000006  -0.000325   0.000000  -0.000009  -0.000001   0.000144
    38  C   -0.000069   0.000924   0.000000   0.000063  -0.000095  -0.000389
    39  C    0.000004  -0.000116   0.000000  -0.000003   0.000008   0.000262
    40  C    0.000149  -0.000897   0.000000   0.000007   0.000084   0.001057
    41  C   -0.000136   0.001471   0.000000  -0.000202   0.000298   0.004661
    42  H    0.000000   0.000001   0.000000   0.000000   0.000000   0.000005
    43  H    0.000000   0.000006   0.000000   0.000000   0.000000   0.000000
    44  F   -0.065151  -0.043760   0.000072   0.288778   0.000000   0.000000
    45  H    0.000597  -0.019121  -0.000006   0.001546   0.000000   0.000004
    46  F    0.000000   0.000000   0.000000   0.000000   0.000000   0.000000
    47  H   -0.000002   0.000016   0.000000  -0.000001   0.000013  -0.000572
    48  F   -0.000014   0.000349   0.000000   0.000000  -0.000002   0.000046
              31         32         33         34         35         36
     1  N   -0.000057   0.000047  -0.000161   0.000015   0.000000   0.000000
     2  C    0.000000  -0.000021   0.000023   0.000123   0.000000  -0.000009
     3  C    0.000000   0.000301  -0.000073  -0.000293   0.000000   0.000033
     4  N    0.000000   0.000925  -0.004366   0.003400   0.000000   0.000000
     5  C    0.000026  -0.008328   0.004608  -0.004319   0.000000   0.000000
     6  C   -0.000006  -0.039533  -0.024917  -0.024645   0.000000   0.000000
     7  H    0.000000  -0.000721   0.003036   0.000102   0.000000   0.000000
     8  H    0.000000   0.000001   0.000000   0.000000   0.000000   0.000007
     9  H    0.000000   0.000011  -0.000001   0.000000   0.000000   0.000000
    10  H    0.000000   0.005134  -0.000055   0.000356   0.000000   0.000000
    11  H    0.000004   0.000250  -0.000074   0.001447   0.000000   0.000000
    12  H    0.000000   0.004355  -0.003531   0.001232   0.000000   0.000000
    13  H    0.000000   0.000004  -0.000001   0.000001   0.000000  -0.000001
    14  H    0.000000   0.000009  -0.000021   0.000011   0.000000   0.000000
    15  O    0.009819   0.000000   0.000000   0.000000   0.000304   0.000000
    16  O    0.000000   0.000000   0.000000   0.000000   0.249582   0.000000
    17  O    0.000000   0.000000   0.000000   0.000000   0.002938   0.000000
    18  N   -0.000052   0.000000   0.000000   0.000000   0.000001  -0.000360
    19  C    0.001065   0.000002  -0.000001   0.000006   0.000000  -0.000310
    20  C    0.001572   0.000000   0.000000   0.000000   0.000007   0.000069
    21  C   -0.014433   0.000000   0.000000   0.000000   0.000044   0.000000
    22  C   -0.000191   0.000000   0.000000   0.000000  -0.000319  -0.000192
    23  C    0.002287   0.000000   0.000000   0.000000   0.004999  -0.000008
    24  C    0.003405   0.000000   0.000000   0.000000   0.001403   0.000001
    25  C    0.317573   0.000000   0.000000  -0.000001  -0.000003   0.000000
    26  C   -0.001153   0.000043   0.000006   0.000073   0.000000  -0.000044
    27  C    0.000000   0.372432   0.368370   0.362524   0.000000   0.000000
    28  C   -0.037419   0.000000   0.000002  -0.000033   0.000000   0.000000
    29  C   -0.000010   0.000000   0.000000   0.000000  -0.028701   0.000000
    30  H    0.000000   0.000000   0.000000   0.000000  -0.000001  -0.000018
    31  H    0.420872   0.000000   0.000000   0.000000   0.000000   0.000000
    32  H    0.000000   0.489440  -0.023181  -0.019262   0.000000   0.000000
    33  H    0.000000  -0.023181   0.497338  -0.021152   0.000000   0.000000
    34  H    0.000000  -0.019262  -0.021152   0.486414   0.000000   0.000000
    35  H    0.000000   0.000000   0.000000   0.000000   0.361537   0.000000
    36  C    0.000000   0.000000   0.000000   0.000000   0.000000   4.553535
    37  C    0.000000   0.000000   0.000000   0.000000   0.000000   0.424310
    38  C   -0.000001   0.000000   0.000000   0.000000   0.000000  -0.014294
    39  C    0.000000   0.000000   0.000000   0.000000   0.000000   0.431125
    40  C    0.000000   0.000000   0.000000   0.000000   0.000000  -0.039544
    41  C    0.000009   0.000000   0.000000   0.000000   0.000000  -0.066878
    42  H    0.000000   0.000000   0.000000   0.000000   0.000000  -0.015357
    43  H    0.000000   0.000000   0.000000   0.000000   0.000000  -0.012983
    44  F    0.000411   0.000000   0.000000  -0.000005   0.000000   0.000000
    45  H    0.000007   0.000000   0.000000   0.000000   0.000000  -0.000050
    46  F    0.000000   0.000000   0.000000   0.000000   0.000000   0.297545
    47  H    0.000000   0.000000   0.000000   0.000000   0.000000   0.000891
    48  F    0.000000   0.000000   0.000000   0.000000   0.000000  -0.000150
              37         38         39         40         41         42
     1  N   -0.000003  -0.000026   0.000002   0.000026  -0.000044   0.000000
     2  C    0.000048  -0.000130  -0.000015  -0.000031   0.000062   0.000000
     3  C    0.000090   0.000044   0.000020  -0.000014  -0.000129   0.000000
     4  N    0.000000   0.000000   0.000000  -0.000001   0.000002   0.000000
     5  C    0.000000   0.000000   0.000000   0.000000  -0.000005   0.000000
     6  C    0.000000   0.000000   0.000000  -0.000001  -0.000002   0.000000
     7  H    0.000000   0.000000   0.000000   0.000000   0.000000   0.000000
     8  H   -0.000018   0.000416  -0.000001   0.000004   0.000047   0.000000
     9  H   -0.000002   0.000000   0.000000   0.000000   0.000005   0.000000
    10  H    0.000000   0.000000   0.000000   0.000000   0.000000   0.000000
    11  H    0.000000   0.000000   0.000000   0.000000   0.000000   0.000000
    12  H    0.000000   0.000000   0.000000   0.000001   0.000000   0.000000
    13  H   -0.000004   0.000003  -0.000001   0.000001   0.000001   0.000000
    14  H   -0.000006  -0.000024   0.000039   0.000065   0.000012   0.000000
    15  O    0.000000  -0.000001   0.000000  -0.000001  -0.000001   0.000000
    16  O    0.000000   0.000000   0.000000   0.000000   0.000006   0.000000
    17  O    0.000000  -0.000020   0.000003   0.000074   0.000300   0.000000
    18  N    0.005290  -0.057611   0.004402  -0.021102   0.142627  -0.000110
    19  C   -0.004211   0.003196  -0.000849  -0.008138   0.018016   0.000030
    20  C    0.001087  -0.021033   0.001671  -0.003041  -0.076610  -0.000027
    21  C    0.000019  -0.003105   0.000176   0.003550  -0.002006   0.000000
    22  C   -0.000562  -0.003281  -0.002089  -0.007761  -0.103889   0.000013
    23  C   -0.000095  -0.001065  -0.000007   0.000106   0.001751   0.000001
    24  C   -0.000008  -0.000127   0.000005   0.000170  -0.000366   0.000000
    25  C    0.000006  -0.000069   0.000004   0.000149  -0.000136   0.000000
    26  C   -0.000325   0.000924  -0.000116  -0.000897   0.001471   0.000001
    27  C    0.000000   0.000000   0.000000   0.000000   0.000000   0.000000
    28  C   -0.000009   0.000063  -0.000003   0.000007  -0.000202   0.000000
    29  C   -0.000001  -0.000095   0.000008   0.000084   0.000298   0.000000
    30  H    0.000144  -0.000389   0.000262   0.001057   0.004661   0.000005
    31  H    0.000000  -0.000001   0.000000   0.000000   0.000009   0.000000
    32  H    0.000000   0.000000   0.000000   0.000000   0.000000   0.000000
    33  H    0.000000   0.000000   0.000000   0.000000   0.000000   0.000000
    34  H    0.000000   0.000000   0.000000   0.000000   0.000000   0.000000
    35  H    0.000000   0.000000   0.000000   0.000000   0.000000   0.000000
    36  C    0.424310  -0.014294   0.431125  -0.039544  -0.066878  -0.015357
    37  C    5.725848   0.420988  -0.136277  -0.051062  -0.086342   0.005825
    38  C    0.420988   4.890763  -0.054823  -0.087973   0.313951   0.000802
    39  C   -0.136277  -0.054823   5.441981   0.517714  -0.056537   0.318989
    40  C   -0.051062  -0.087973   0.517714   5.204072   0.404866  -0.024585
    41  C   -0.086342   0.313951  -0.056537   0.404866   5.351181  -0.000179
    42  H    0.005825   0.000802   0.318989  -0.024585  -0.000179   0.453155
    43  H    0.324347  -0.027998   0.005092   0.001191  -0.001875  -0.000069
    44  F    0.000000   0.000000   0.000000   0.000000  -0.000001   0.000000
    45  H    0.000135   0.000938   0.000039  -0.001864   0.015686  -0.000002
    46  F   -0.048477  -0.000114  -0.044536   0.001255  -0.001075  -0.000212
    47  H   -0.000243   0.003620  -0.031357   0.334907  -0.014421  -0.002520
    48  F   -0.060157   0.306845  -0.000466   0.003170  -0.044292   0.000000
              43         44         45         46         47         48
     1  N    0.000000   0.004684  -0.006368   0.000000   0.000000   0.000002
     2  C   -0.000004  -0.000166   0.005343   0.000000  -0.000001  -0.000006
     3  C    0.000001   0.000008  -0.003434   0.000000   0.000000   0.000001
     4  N    0.000000  -0.000004   0.000003   0.000000   0.000000   0.000000
     5  C    0.000000  -0.004113   0.000557   0.000000   0.000000   0.000000
     6  C    0.000000  -0.000325  -0.000491   0.000000   0.000000   0.000000
     7  H    0.000000   0.000000   0.000003   0.000000   0.000000   0.000000
     8  H    0.000001  -0.000005   0.002623   0.000000   0.000000  -0.000007
     9  H    0.000000   0.000000   0.000300   0.000000   0.000000   0.000000
    10  H    0.000000  -0.000329   0.000013   0.000000   0.000000   0.000000
    11  H    0.000000   0.005347  -0.000013   0.000000   0.000000   0.000000
    12  H    0.000000   0.000071   0.000120   0.000000   0.000000   0.000000
    13  H    0.000000   0.000000   0.000175   0.000000   0.000000   0.000000
    14  H    0.000000   0.000000   0.002382   0.000000  -0.000002   0.000000
    15  O    0.000000   0.000003   0.000001   0.000000   0.000000   0.000000
    16  O    0.000000   0.000000   0.000000   0.000000   0.000000   0.000000
    17  O    0.000000   0.000000   0.000000   0.000000   0.000000   0.000000
    18  N   -0.000095  -0.000001  -0.003642  -0.000001  -0.008323   0.000361
    19  C    0.000051   0.001567   0.289883   0.000001   0.000143  -0.000412
    20  C   -0.000050  -0.001171  -0.018787  -0.000001   0.000755   0.009808
    21  C   -0.000001  -0.001144  -0.003689   0.000000  -0.000095   0.001356
    22  C    0.000004   0.000000   0.001283   0.000000   0.001262   0.001933
    23  C    0.000000  -0.000003  -0.000001   0.000000   0.000099  -0.000028
    24  C    0.000000  -0.000011  -0.000121   0.000000  -0.000010   0.000068
    25  C    0.000000  -0.065151   0.000597   0.000000  -0.000002  -0.000014
    26  C    0.000006  -0.043760  -0.019121   0.000000   0.000016   0.000349
    27  C    0.000000   0.000072  -0.000006   0.000000   0.000000   0.000000
    28  C    0.000000   0.288778   0.001546   0.000000  -0.000001   0.000000
    29  C    0.000000   0.000000   0.000000   0.000000   0.000013  -0.000002
    30  H    0.000000   0.000000   0.000004   0.000000  -0.000572   0.000046
    31  H    0.000000   0.000411   0.000007   0.000000   0.000000   0.000000
    32  H    0.000000   0.000000   0.000000   0.000000   0.000000   0.000000
    33  H    0.000000   0.000000   0.000000   0.000000   0.000000   0.000000
    34  H    0.000000  -0.000005   0.000000   0.000000   0.000000   0.000000
    35  H    0.000000   0.000000   0.000000   0.000000   0.000000   0.000000
    36  C   -0.012983   0.000000  -0.000050   0.297545   0.000891  -0.000150
    37  C    0.324347   0.000000   0.000135  -0.048477  -0.000243  -0.060157
    38  C   -0.027998   0.000000   0.000938  -0.000114   0.003620   0.306845
    39  C    0.005092   0.000000   0.000039  -0.044536  -0.031357  -0.000466
    40  C    0.001191   0.000000  -0.001864   0.001255   0.334907   0.003170
    41  C   -0.001875  -0.000001   0.015686  -0.001075  -0.014421  -0.044292
    42  H   -0.000069   0.000000  -0.000002  -0.000212  -0.002520   0.000000
    43  H    0.423918   0.000000   0.000009  -0.000997   0.000004  -0.001307
    44  F    0.000000   9.077297  -0.000034   0.000000   0.000000   0.000000
    45  H    0.000009  -0.000034   0.492604   0.000000   0.000013  -0.001955
    46  F   -0.000997   0.000000   0.000000   9.042409  -0.000036  -0.000003
    47  H    0.000004   0.000000   0.000013  -0.000036   0.459150  -0.000032
    48  F   -0.001307   0.000000  -0.001955  -0.000003  -0.000032   9.004399
 Mulliken charges:
               1
     1  N   -0.216951
     2  C   -0.399035
     3  C   -0.372177
     4  N   -0.401322
     5  C   -0.401272
     6  C    0.019836
     7  H    0.290864
     8  H    0.212060
     9  H    0.250936
    10  H    0.220506
    11  H    0.255139
    12  H    0.189487
    13  H    0.213742
    14  H    0.186823
    15  O   -0.283942
    16  O   -0.450184
    17  O   -0.352204
    18  N   -0.302939
    19  C   -0.447375
    20  C    0.335634
    21  C    0.200061
    22  C   -0.283154
    23  C    0.098724
    24  C    0.146595
    25  C   -0.570458
    26  C    0.354990
    27  C   -0.709883
    28  C    0.216963
    29  C    0.202969
    30  H    0.293963
    31  H    0.296270
    32  H    0.218090
    33  H    0.204151
    34  H    0.214008
    35  H    0.408210
    36  C    0.442682
    37  C   -0.520334
    38  C    0.329627
    39  C   -0.394456
    40  C   -0.226453
    41  C    0.200039
    42  H    0.264242
    43  H    0.290754
    44  F   -0.262015
    45  H    0.245314
    46  F   -0.245755
    47  H    0.256738
    48  F   -0.219508
 Sum of Mulliken charges =   0.00000
 Mulliken charges with hydrogens summed into heavy atoms:
               1
     1  N   -0.216951
     2  C    0.063961
     3  C    0.028389
     4  N   -0.110458
     5  C    0.074373
     6  C    0.209323
    15  O   -0.283942
    16  O   -0.041974
    17  O   -0.352204
    18  N   -0.302939
    19  C   -0.202061
    20  C    0.335634
    21  C    0.200061
    22  C    0.010808
    23  C    0.098724
    24  C    0.146595
    25  C   -0.274187
    26  C    0.354990
    27  C   -0.073633
    28  C    0.216963
    29  C    0.202969
    36  C    0.442682
    37  C   -0.229580
    38  C    0.329627
    39  C   -0.130214
    40  C    0.030285
    41  C    0.200039
    44  F   -0.262015
    46  F   -0.245755
    48  F   -0.219508
 Electronic spatial extent (au):  <R**2>=          13425.3890
 Charge=              0.0000 electrons
 Dipole moment (field-independent basis, Debye):
    X=             -4.9518    Y=              6.7245    Z=             -2.7269  Tot=              8.7849
 Quadrupole moment (field-independent basis, Debye-Ang):
   XX=           -172.5355   YY=           -190.8383   ZZ=           -166.1225
   XY=              4.6878   XZ=              5.8410   YZ=              1.1887
 Traceless Quadrupole moment (field-independent basis, Debye-Ang):
   XX=              3.9633   YY=            -14.3395   ZZ=             10.3762
   XY=              4.6878   XZ=              5.8410   YZ=              1.1887
 Octapole moment (field-independent basis, Debye-Ang**2):
  XXX=            -68.7680  YYY=             46.1629  ZZZ=             -9.4691  XYY=            -27.8837
  XXY=            -20.0578  XXZ=            -21.0460  XZZ=             -8.4478  YZZ=             30.7080
  YYZ=             -4.3099  XYZ=             -5.1877
 Hexadecapole moment (field-independent basis, Debye-Ang**3):
 XXXX=          -9757.8454 YYYY=          -6944.3188 ZZZZ=           -914.0918 XXXY=           -426.2768
 XXXZ=            246.1976 YYYX=            108.3247 YYYZ=             65.7771 ZZZX=             -9.0800
 ZZZY=            -21.6855 XXYY=          -2575.0336 XXZZ=          -1746.8787 YYZZ=          -1048.4110
 XXYZ=             52.3667 YYXZ=             -9.3136 ZZXY=             -8.8459
 N-N= 2.927218744549D+03 E-N=-9.362740054213D+03  KE= 1.492137028774D+03
 1\1\GINC-NODE043\FOpt\RM06\LANL2DZ\C21H18F3N3O3\SUPERCOMPUTO1\21-Jul-2
 020\0\\#opt M06/lanl2dz integral=ultrafine geom=connectivity\\Title Ca
 rd Required\\0,1\N,-3.0422566392,-0.6468260824,0.7628381713\C,-3.33693
 74737,0.7632573735,1.0454590893\C,-3.7539368078,1.4958596606,-0.237699
 1346\N,-4.8984640281,0.782672218,-0.8056784537\C,-4.2129724736,-1.3347
 911352,0.1867316658\C,-4.6452933423,-0.6319248617,-1.1104638326\H,-5.3
 857810641,1.2804784235,-1.5467639691\H,-2.4840709689,1.241978401,1.536
 1731512\H,-4.1858615244,0.7893008459,1.7410883557\H,-5.044010682,-1.27
 68635519,0.9041193289\H,-3.9892508157,-2.38454265,-0.005055336\H,-3.81
 06771132,-0.7448682281,-1.8378415389\H,-4.0461740326,2.5247098744,-0.0
 012953628\H,-2.8879143007,1.5341896214,-0.9318902148\O,2.5466224663,-3
 .7511409409,-0.0382678715\O,5.1905726958,-2.9803670839,-0.344920592\O,
 5.5905699773,-0.7750790092,-0.7222010118\N,1.6951216465,0.3047027779,-
 0.0257924555\C,-0.6784475544,-0.1743789863,0.3296746953\C,0.6418365144
 ,-0.6196330141,0.1758691678\C,0.958178185,-1.9930613164,0.1752945198\C
 ,2.9721443841,-0.1417859522,-0.2234091321\C,3.3402047014,-1.4665659218
 ,-0.2335774176\C,2.3294475023,-2.5176438888,-0.0299046602\C,-0.0953609
 35,-2.9030459579,0.3795217879\C,-1.7437603067,-1.0753721913,0.53787709
 5\C,-5.9084031101,-1.272839357,-1.6711528212\C,-1.3795084794,-2.452992
 7179,0.5671888125\C,4.7812015046,-1.6864446395,-0.4586405261\H,3.73545
 59895,0.6182648716,-0.3751081647\H,0.1342284703,-3.9644715276,0.413277
 4029\H,-6.7207750744,-1.1900017525,-0.938842783\H,-6.2296458877,-0.775
 3878904,-2.5947951358\H,-5.7441441437,-2.3319545525,-1.8983012646\H,6.
 1582332753,-3.0376298562,-0.5064248915\C,1.0459006589,4.4596102793,-0.
 0481940355\C,0.9704092425,3.7885000863,1.1707877706\C,1.1856092343,2.4
 148347,1.1457802796\C,1.3225524134,3.8219893921,-1.2565167481\C,1.5220
 351064,2.437378206,-1.2392696196\C,1.4546378206,1.7167663489,-0.039256
 0269\H,1.3743520903,4.3983531621,-2.1725087771\H,0.7687504493,4.311141
 5802,2.0984105522\F,-2.3609259575,-3.4003925892,0.8499667362\H,-0.8913
 040288,0.886883052,0.2610514827\F,0.8390156297,5.8225763109,-0.0518269
 598\H,1.7313731612,1.8963225353,-2.1571364036\F,1.1353536246,1.7193469
 342,2.3306260761\\Version=ES64L-G09RevD.01\State=1-A\HF=-1499.4586576\
 RMSD=9.022e-09\RMSF=2.856e-06\Dipole=-1.8962368,2.6869137,-1.0632452\Q
 uadrupole=2.9294472,-10.7764422,7.846995,3.2242044,4.3339649,0.6254242
 \PG=C01 [X(C21H18F3N3O3)]\\@


 MANHOOD BEGINS BY TRYING TO SHAVE FACE,
 AND ENDS BY TRYING TO SAVE FACE.
 Job cpu time:       0 days  7 hours 31 minutes 19.0 seconds.
 File lengths (MBytes):  RWF=     61 Int=      0 D2E=      0 Chk=      9 Scr=      1
 Normal termination of Gaussian 09 at Tue Jul 21 15:50:26 2020.
