 Entering Gaussian System, Link 0=g09
 Input=gemifloxacina.gjf
 Output=gemifloxacina.log
 Initial command:
 /usr/local/cluster_programs/g09/l1.exe "/tmp/scratch/64219.prometeo/Gau-20471.inp" -scrdir="/tmp/scratch/64219.prometeo/"
 Entering Link 1 = /usr/local/cluster_programs/g09/l1.exe PID=     20472.
  
 Copyright (c) 1988,1990,1992,1993,1995,1998,2003,2009,2013,
            Gaussian, Inc.  All Rights Reserved.
  
 This is part of the Gaussian(R) 09 program.  It is based on
 the Gaussian(R) 03 system (copyright 2003, Gaussian, Inc.),
 the Gaussian(R) 98 system (copyright 1998, Gaussian, Inc.),
 the Gaussian(R) 94 system (copyright 1995, Gaussian, Inc.),
 the Gaussian 92(TM) system (copyright 1992, Gaussian, Inc.),
 the Gaussian 90(TM) system (copyright 1990, Gaussian, Inc.),
 the Gaussian 88(TM) system (copyright 1988, Gaussian, Inc.),
 the Gaussian 86(TM) system (copyright 1986, Carnegie Mellon
 University), and the Gaussian 82(TM) system (copyright 1983,
 Carnegie Mellon University). Gaussian is a federally registered
 trademark of Gaussian, Inc.
  
 This software contains proprietary and confidential information,
 including trade secrets, belonging to Gaussian, Inc.
  
 This software is provided under written license and may be
 used, copied, transmitted, or stored only in accord with that
 written license.
  
 The following legend is applicable only to US Government
 contracts under FAR:
  
                    RESTRICTED RIGHTS LEGEND
  
 Use, reproduction and disclosure by the US Government is
 subject to restrictions as set forth in subparagraphs (a)
 and (c) of the Commercial Computer Software - Restricted
 Rights clause in FAR 52.227-19.
  
 Gaussian, Inc.
 340 Quinnipiac St., Bldg. 40, Wallingford CT 06492
  
  
 ---------------------------------------------------------------
 Warning -- This program may not be used in any manner that
 competes with the business of Gaussian, Inc. or will provide
 assistance to any competitor of Gaussian, Inc.  The licensee
 of this program is prohibited from giving any competitor of
 Gaussian, Inc. access to this program.  By using this program,
 the user acknowledges that Gaussian, Inc. is engaged in the
 business of creating and licensing software in the field of
 computational chemistry and represents and warrants to the
 licensee that it is not a competitor of Gaussian, Inc. and that
 it will not use this program in any manner prohibited above.
 ---------------------------------------------------------------
  

 Cite this work as:
 Gaussian 09, Revision D.01,
 M. J. Frisch, G. W. Trucks, H. B. Schlegel, G. E. Scuseria, 
 M. A. Robb, J. R. Cheeseman, G. Scalmani, V. Barone, B. Mennucci, 
 G. A. Petersson, H. Nakatsuji, M. Caricato, X. Li, H. P. Hratchian, 
 A. F. Izmaylov, J. Bloino, G. Zheng, J. L. Sonnenberg, M. Hada, 
 M. Ehara, K. Toyota, R. Fukuda, J. Hasegawa, M. Ishida, T. Nakajima, 
 Y. Honda, O. Kitao, H. Nakai, T. Vreven, J. A. Montgomery, Jr., 
 J. E. Peralta, F. Ogliaro, M. Bearpark, J. J. Heyd, E. Brothers, 
 K. N. Kudin, V. N. Staroverov, T. Keith, R. Kobayashi, J. Normand, 
 K. Raghavachari, A. Rendell, J. C. Burant, S. S. Iyengar, J. Tomasi, 
 M. Cossi, N. Rega, J. M. Millam, M. Klene, J. E. Knox, J. B. Cross, 
 V. Bakken, C. Adamo, J. Jaramillo, R. Gomperts, R. E. Stratmann, 
 O. Yazyev, A. J. Austin, R. Cammi, C. Pomelli, J. W. Ochterski, 
 R. L. Martin, K. Morokuma, V. G. Zakrzewski, G. A. Voth, 
 P. Salvador, J. J. Dannenberg, S. Dapprich, A. D. Daniels, 
 O. Farkas, J. B. Foresman, J. V. Ortiz, J. Cioslowski, 
 and D. J. Fox, Gaussian, Inc., Wallingford CT, 2013.
 
 ******************************************
 Gaussian 09:  ES64L-G09RevD.01 24-Apr-2013
                21-Jul-2020 
 ******************************************
 %nprocshared=20
 Will use up to   20 processors via shared memory.
 -----------------------------------------------------
 #opt M06/lanl2dz integral=ultrafine geom=connectivity
 -----------------------------------------------------
 1/14=-1,18=20,19=15,26=4,38=1,57=2/1,3;
 2/9=110,12=2,17=6,18=5,40=1/2;
 3/5=6,6=3,11=2,16=1,25=1,30=1,71=1,74=-54,75=-5/1,2,3;
 4//1;
 5/5=2,38=5/2;
 6/7=2,8=2,9=2,10=2,28=1/1;
 7//1,2,3,16;
 1/14=-1,18=20,19=15,26=4/3(2);
 2/9=110/2;
 99//99;
 2/9=110/2;
 3/5=6,6=3,11=2,16=1,25=1,30=1,71=1,74=-54,75=-5/1,2,3;
 4/5=5,16=3,69=1/1;
 5/5=2,38=5/2;
 7//1,2,3,16;
 1/14=-1,18=20,19=15,26=4/3(-5);
 2/9=110/2;
 6/7=2,8=2,9=2,10=2,19=2,28=1/1;
 99/9=1/99;
 -------------------
 Title Card Required
 -------------------
 Symbolic Z-matrix:
 Charge =  0 Multiplicity = 1
 F(PDBName=F1,ResName=MOL,ResNum=1) 0    -1.15248  -2.95395  -0.04695  L 
 O(PDBName=O2,ResName=MOL,ResNum=1) 0     3.89557  -2.74404   0.01807  L 
 O(PDBName=O3,ResName=MOL,ResNum=1) 0    -5.62565  -1.8899    0.35514  L 
 O(PDBName=O4,ResName=MOL,ResNum=1) 0     6.38315  -1.62584  -0.06521  L 
 O(PDBName=O5,ResName=MOL,ResNum=1) 0     6.54401   0.64939  -0.13102  L 
 N(PDBName=N6,ResName=MOL,ResNum=1) 0     2.48889   1.16112  -0.0888   L 
 N(PDBName=N7,ResName=MOL,ResNum=1) 0    -1.94607  -0.23112  -0.1643   L 
 N(PDBName=N8,ResName=MOL,ResNum=1) 0     0.27651   0.39621  -0.11224  L 
 N(PDBName=N9,ResName=MOL,ResNum=1) 0    -5.51862  -0.4639   -0.04985  L 
 N(PDBName=N10,ResName=MOL,ResNum=1) 0    -4.2384    3.68672  -0.49222  L 
 C(PDBName=C11,ResName=MOL,ResNum=1) 0     1.98333   2.52922  -0.12676  L 
 C(PDBName=C12,ResName=MOL,ResNum=1) 0     2.74492   3.61344   0.62008  L 
 C(PDBName=C13,ResName=MOL,ResNum=1) 0     1.39518   3.12384   1.1364   L 
 C(PDBName=C14,ResName=MOL,ResNum=1) 0     1.58132   0.08983  -0.07735  L 
 C(PDBName=C15,ResName=MOL,ResNum=1) 0    -3.80453   1.17884  -0.66739  L 
 C(PDBName=C16,ResName=MOL,ResNum=1) 0    -2.33992   1.19884  -0.16773  L 
 C(PDBName=C17,ResName=MOL,ResNum=1) 0    -3.11444  -1.13767  -0.05999  L 
 C(PDBName=C18,ResName=MOL,ResNum=1) 0     3.82258   0.89112  -0.10569  L 
 C(PDBName=C19,ResName=MOL,ResNum=1) 0    -4.28202  -0.19717  -0.24113  L 
 C(PDBName=C20,ResName=MOL,ResNum=1) 0    -0.63789  -0.59545  -0.10901  L 
 C(PDBName=C21,ResName=MOL,ResNum=1) 0     2.07987  -1.21704  -0.04003  L 
 C(PDBName=C22,ResName=MOL,ResNum=1) 0    -4.66743   2.33394  -0.10191  L 
 C(PDBName=C23,ResName=MOL,ResNum=1) 0     4.36942  -0.36246  -0.07305  L 
 C(PDBName=C24,ResName=MOL,ResNum=1) 0     3.51993  -1.55598  -0.02429  L 
 C(PDBName=C25,ResName=MOL,ResNum=1) 0    -0.20485  -1.95186  -0.05938  L 
 C(PDBName=C26,ResName=MOL,ResNum=1) 0     1.12697  -2.24933  -0.02616  L 
 C(PDBName=C27,ResName=MOL,ResNum=1) 0     5.83954  -0.36736  -0.09294  L 
 C(PDBName=C28,ResName=MOL,ResNum=1) 0    -7.03448  -2.14139   0.67001  L 
 H(PDBName=H29,ResName=MOL,ResNum=1) 0     1.51211   2.7906   -1.06608  L 
 H(PDBName=H30,ResName=MOL,ResNum=1) 0     2.80007   4.58628   0.14778  L 
 H(PDBName=H31,ResName=MOL,ResNum=1) 0     3.62034   3.32714   1.18913  L 
 H(PDBName=H32,ResName=MOL,ResNum=1) 0     1.40609   2.49454   2.01674  L 
 H(PDBName=H33,ResName=MOL,ResNum=1) 0     0.5297    3.76514   1.02839  L 
 H(PDBName=H34,ResName=MOL,ResNum=1) 0    -3.80957   1.22463  -1.76614  L 
 H(PDBName=H35,ResName=MOL,ResNum=1) 0    -1.66344   1.76315  -0.80815  L 
 H(PDBName=H36,ResName=MOL,ResNum=1) 0    -2.28733   1.61229   0.85039  L 
 H(PDBName=H37,ResName=MOL,ResNum=1) 0    -3.17881  -1.642     0.90999  L 
 H(PDBName=H38,ResName=MOL,ResNum=1) 0    -3.10308  -1.90919  -0.83345  L 
 H(PDBName=H39,ResName=MOL,ResNum=1) 0     4.49373   1.7385   -0.14755  L 
 H(PDBName=H40,ResName=MOL,ResNum=1) 0    -4.65558   2.26942   0.99184  L 
 H(PDBName=H41,ResName=MOL,ResNum=1) 0    -5.70216   2.1829   -0.42199  L 
 H(PDBName=H42,ResName=MOL,ResNum=1) 0     1.4821   -3.27113   0.00696  L 
 H(PDBName=H43,ResName=MOL,ResNum=1) 0    -4.29367   3.85234  -1.49942  L 
 H(PDBName=H44,ResName=MOL,ResNum=1) 0    -3.31633   3.9401   -0.13225  L 
 H(PDBName=H45,ResName=MOL,ResNum=1) 0     7.37472  -1.51977  -0.08241  L 
 H(PDBName=H46,ResName=MOL,ResNum=1) 0    -7.67327  -1.94706  -0.1964   L 
 H(PDBName=H47,ResName=MOL,ResNum=1) 0    -7.36975  -1.53182   1.51471  L 
 H(PDBName=H48,ResName=MOL,ResNum=1) 0    -7.07145  -3.20067   0.93427  L 
 
 Center=     -0.57127408      0.41027956      0.04818092
 Residue   1 PDB Number     1_0 MOL charge    0.00000000 layers R        AvRTP=      0.00000000     90.00000000     90.00000000

 GradGradGradGradGradGradGradGradGradGradGradGradGradGradGradGradGradGrad
 Berny optimization.
 Initialization pass.
                           ----------------------------
                           !    Initial Parameters    !
                           ! (Angstroms and Degrees)  !
 --------------------------                            --------------------------
 ! Name  Definition              Value          Derivative Info.                !
 --------------------------------------------------------------------------------
 ! R1    R(1,25)                 1.3793         estimate D2E/DX2                !
 ! R2    R(2,24)                 1.2468         estimate D2E/DX2                !
 ! R3    R(3,9)                  1.4863         estimate D2E/DX2                !
 ! R4    R(3,28)                 1.4653         estimate D2E/DX2                !
 ! R5    R(4,27)                 1.3712         estimate D2E/DX2                !
 ! R6    R(4,45)                 0.9974         estimate D2E/DX2                !
 ! R7    R(5,27)                 1.2375         estimate D2E/DX2                !
 ! R8    R(6,11)                 1.459          estimate D2E/DX2                !
 ! R9    R(6,14)                 1.4041         estimate D2E/DX2                !
 ! R10   R(6,18)                 1.3608         estimate D2E/DX2                !
 ! R11   R(7,16)                 1.4832         estimate D2E/DX2                !
 ! R12   R(7,17)                 1.4825         estimate D2E/DX2                !
 ! R13   R(7,20)                 1.3591         estimate D2E/DX2                !
 ! R14   R(8,14)                 1.3408         estimate D2E/DX2                !
 ! R15   R(8,20)                 1.3489         estimate D2E/DX2                !
 ! R16   R(9,19)                 1.2794         estimate D2E/DX2                !
 ! R17   R(10,22)                1.4719         estimate D2E/DX2                !
 ! R18   R(10,43)                1.0222         estimate D2E/DX2                !
 ! R19   R(10,44)                1.0218         estimate D2E/DX2                !
 ! R20   R(11,12)                1.521          estimate D2E/DX2                !
 ! R21   R(11,13)                1.5149         estimate D2E/DX2                !
 ! R22   R(11,29)                1.0829         estimate D2E/DX2                !
 ! R23   R(12,13)                1.5258         estimate D2E/DX2                !
 ! R24   R(12,30)                1.0828         estimate D2E/DX2                !
 ! R25   R(12,31)                1.0827         estimate D2E/DX2                !
 ! R26   R(13,32)                1.0822         estimate D2E/DX2                !
 ! R27   R(13,33)                1.0826         estimate D2E/DX2                !
 ! R28   R(14,21)                1.3992         estimate D2E/DX2                !
 ! R29   R(15,16)                1.5476         estimate D2E/DX2                !
 ! R30   R(15,19)                1.5176         estimate D2E/DX2                !
 ! R31   R(15,22)                1.5487         estimate D2E/DX2                !
 ! R32   R(15,34)                1.0997         estimate D2E/DX2                !
 ! R33   R(16,35)                1.0891         estimate D2E/DX2                !
 ! R34   R(16,36)                1.1001         estimate D2E/DX2                !
 ! R35   R(17,19)                1.5102         estimate D2E/DX2                !
 ! R36   R(17,37)                1.0952         estimate D2E/DX2                !
 ! R37   R(17,38)                1.0925         estimate D2E/DX2                !
 ! R38   R(18,23)                1.368          estimate D2E/DX2                !
 ! R39   R(18,39)                1.0818         estimate D2E/DX2                !
 ! R40   R(20,25)                1.4247         estimate D2E/DX2                !
 ! R41   R(21,24)                1.4795         estimate D2E/DX2                !
 ! R42   R(21,26)                1.4049         estimate D2E/DX2                !
 ! R43   R(22,40)                1.0957         estimate D2E/DX2                !
 ! R44   R(22,41)                1.0936         estimate D2E/DX2                !
 ! R45   R(23,24)                1.4658         estimate D2E/DX2                !
 ! R46   R(23,27)                1.4703         estimate D2E/DX2                !
 ! R47   R(25,26)                1.365          estimate D2E/DX2                !
 ! R48   R(26,42)                1.0823         estimate D2E/DX2                !
 ! R49   R(28,46)                1.0938         estimate D2E/DX2                !
 ! R50   R(28,47)                1.0943         estimate D2E/DX2                !
 ! R51   R(28,48)                1.0924         estimate D2E/DX2                !
 ! A1    A(9,3,28)             107.0052         estimate D2E/DX2                !
 ! A2    A(27,4,45)            107.2288         estimate D2E/DX2                !
 ! A3    A(11,6,14)            119.4502         estimate D2E/DX2                !
 ! A4    A(11,6,18)            121.6895         estimate D2E/DX2                !
 ! A5    A(14,6,18)            118.8289         estimate D2E/DX2                !
 ! A6    A(16,7,17)            112.3604         estimate D2E/DX2                !
 ! A7    A(16,7,20)            120.9398         estimate D2E/DX2                !
 ! A8    A(17,7,20)            126.2846         estimate D2E/DX2                !
 ! A9    A(14,8,20)            119.45           estimate D2E/DX2                !
 ! A10   A(3,9,19)             108.0813         estimate D2E/DX2                !
 ! A11   A(22,10,43)           113.2304         estimate D2E/DX2                !
 ! A12   A(22,10,44)           113.4243         estimate D2E/DX2                !
 ! A13   A(43,10,44)           110.8386         estimate D2E/DX2                !
 ! A14   A(6,11,12)            118.8256         estimate D2E/DX2                !
 ! A15   A(6,11,13)            118.7427         estimate D2E/DX2                !
 ! A16   A(6,11,29)            113.5577         estimate D2E/DX2                !
 ! A17   A(12,11,29)           118.1482         estimate D2E/DX2                !
 ! A18   A(13,11,29)           117.3595         estimate D2E/DX2                !
 ! A19   A(11,12,30)           116.8572         estimate D2E/DX2                !
 ! A20   A(11,12,31)           118.3242         estimate D2E/DX2                !
 ! A21   A(13,12,30)           118.7467         estimate D2E/DX2                !
 ! A22   A(13,12,31)           116.9084         estimate D2E/DX2                !
 ! A23   A(30,12,31)           115.1922         estimate D2E/DX2                !
 ! A24   A(11,13,32)           116.4948         estimate D2E/DX2                !
 ! A25   A(11,13,33)           117.3678         estimate D2E/DX2                !
 ! A26   A(12,13,32)           116.9327         estimate D2E/DX2                !
 ! A27   A(12,13,33)           118.905          estimate D2E/DX2                !
 ! A28   A(32,13,33)           115.7024         estimate D2E/DX2                !
 ! A29   A(6,14,8)             117.0322         estimate D2E/DX2                !
 ! A30   A(6,14,21)            118.8506         estimate D2E/DX2                !
 ! A31   A(8,14,21)            124.1157         estimate D2E/DX2                !
 ! A32   A(16,15,19)           102.6383         estimate D2E/DX2                !
 ! A33   A(16,15,22)           113.5629         estimate D2E/DX2                !
 ! A34   A(16,15,34)           109.0488         estimate D2E/DX2                !
 ! A35   A(19,15,22)           113.4774         estimate D2E/DX2                !
 ! A36   A(19,15,34)           108.4781         estimate D2E/DX2                !
 ! A37   A(22,15,34)           109.341          estimate D2E/DX2                !
 ! A38   A(7,16,15)            103.862          estimate D2E/DX2                !
 ! A39   A(7,16,35)            109.6302         estimate D2E/DX2                !
 ! A40   A(7,16,36)            110.3342         estimate D2E/DX2                !
 ! A41   A(15,16,35)           113.8698         estimate D2E/DX2                !
 ! A42   A(15,16,36)           110.4193         estimate D2E/DX2                !
 ! A43   A(35,16,36)           108.6484         estimate D2E/DX2                !
 ! A44   A(7,17,19)            102.712          estimate D2E/DX2                !
 ! A45   A(7,17,37)            112.9694         estimate D2E/DX2                !
 ! A46   A(7,17,38)            111.9513         estimate D2E/DX2                !
 ! A47   A(19,17,37)           110.3405         estimate D2E/DX2                !
 ! A48   A(19,17,38)           111.28           estimate D2E/DX2                !
 ! A49   A(37,17,38)           107.6047         estimate D2E/DX2                !
 ! A50   A(6,18,23)            124.9778         estimate D2E/DX2                !
 ! A51   A(6,18,39)            116.9424         estimate D2E/DX2                !
 ! A52   A(23,18,39)           118.0797         estimate D2E/DX2                !
 ! A53   A(9,19,15)            122.3524         estimate D2E/DX2                !
 ! A54   A(9,19,17)            126.8343         estimate D2E/DX2                !
 ! A55   A(15,19,17)           110.8002         estimate D2E/DX2                !
 ! A56   A(7,20,8)             117.0855         estimate D2E/DX2                !
 ! A57   A(7,20,25)            123.3122         estimate D2E/DX2                !
 ! A58   A(8,20,25)            119.6005         estimate D2E/DX2                !
 ! A59   A(14,21,24)           124.1289         estimate D2E/DX2                !
 ! A60   A(14,21,26)           116.4148         estimate D2E/DX2                !
 ! A61   A(24,21,26)           119.455          estimate D2E/DX2                !
 ! A62   A(10,22,15)           115.2302         estimate D2E/DX2                !
 ! A63   A(10,22,40)           108.4008         estimate D2E/DX2                !
 ! A64   A(10,22,41)           108.9727         estimate D2E/DX2                !
 ! A65   A(15,22,40)           108.3324         estimate D2E/DX2                !
 ! A66   A(15,22,41)           108.4997         estimate D2E/DX2                !
 ! A67   A(40,22,41)           107.1133         estimate D2E/DX2                !
 ! A68   A(18,23,24)           121.0143         estimate D2E/DX2                !
 ! A69   A(18,23,27)           113.7297         estimate D2E/DX2                !
 ! A70   A(24,23,27)           125.256          estimate D2E/DX2                !
 ! A71   A(2,24,21)            120.7932         estimate D2E/DX2                !
 ! A72   A(2,24,23)            127.0444         estimate D2E/DX2                !
 ! A73   A(21,24,23)           112.1611         estimate D2E/DX2                !
 ! A74   A(1,25,20)            118.894          estimate D2E/DX2                !
 ! A75   A(1,25,26)            120.7828         estimate D2E/DX2                !
 ! A76   A(20,25,26)           120.3232         estimate D2E/DX2                !
 ! A77   A(21,26,25)           120.0913         estimate D2E/DX2                !
 ! A78   A(21,26,42)           118.129          estimate D2E/DX2                !
 ! A79   A(25,26,42)           121.7792         estimate D2E/DX2                !
 ! A80   A(4,27,5)             121.9392         estimate D2E/DX2                !
 ! A81   A(4,27,23)            113.5288         estimate D2E/DX2                !
 ! A82   A(5,27,23)            124.532          estimate D2E/DX2                !
 ! A83   A(3,28,46)            111.1479         estimate D2E/DX2                !
 ! A84   A(3,28,47)            111.3978         estimate D2E/DX2                !
 ! A85   A(3,28,48)            104.534          estimate D2E/DX2                !
 ! A86   A(46,28,47)           109.4828         estimate D2E/DX2                !
 ! A87   A(46,28,48)           110.1284         estimate D2E/DX2                !
 ! A88   A(47,28,48)           110.0631         estimate D2E/DX2                !
 ! D1    D(28,3,9,19)          175.6218         estimate D2E/DX2                !
 ! D2    D(9,3,28,46)           59.7173         estimate D2E/DX2                !
 ! D3    D(9,3,28,47)          -62.6715         estimate D2E/DX2                !
 ! D4    D(9,3,28,48)          178.498          estimate D2E/DX2                !
 ! D5    D(45,4,27,5)           -0.0386         estimate D2E/DX2                !
 ! D6    D(45,4,27,23)         179.956          estimate D2E/DX2                !
 ! D7    D(14,6,11,12)         145.2066         estimate D2E/DX2                !
 ! D8    D(14,6,11,13)          75.2256         estimate D2E/DX2                !
 ! D9    D(14,6,11,29)         -68.9623         estimate D2E/DX2                !
 ! D10   D(18,6,11,12)         -36.8562         estimate D2E/DX2                !
 ! D11   D(18,6,11,13)        -106.8372         estimate D2E/DX2                !
 ! D12   D(18,6,11,29)         108.9749         estimate D2E/DX2                !
 ! D13   D(11,6,14,8)            0.4643         estimate D2E/DX2                !
 ! D14   D(11,6,14,21)        -179.9608         estimate D2E/DX2                !
 ! D15   D(18,6,14,8)         -177.5321         estimate D2E/DX2                !
 ! D16   D(18,6,14,21)           2.0427         estimate D2E/DX2                !
 ! D17   D(11,6,18,23)        -179.9753         estimate D2E/DX2                !
 ! D18   D(11,6,18,39)           0.066          estimate D2E/DX2                !
 ! D19   D(14,6,18,23)          -2.0257         estimate D2E/DX2                !
 ! D20   D(14,6,18,39)         178.0156         estimate D2E/DX2                !
 ! D21   D(17,7,16,15)         -23.6972         estimate D2E/DX2                !
 ! D22   D(17,7,16,35)        -145.7389         estimate D2E/DX2                !
 ! D23   D(17,7,16,36)          94.6418         estimate D2E/DX2                !
 ! D24   D(20,7,16,15)         163.2508         estimate D2E/DX2                !
 ! D25   D(20,7,16,35)          41.2091         estimate D2E/DX2                !
 ! D26   D(20,7,16,36)         -78.4102         estimate D2E/DX2                !
 ! D27   D(16,7,17,19)           9.5193         estimate D2E/DX2                !
 ! D28   D(16,7,17,37)        -109.3379         estimate D2E/DX2                !
 ! D29   D(16,7,17,38)         128.9943         estimate D2E/DX2                !
 ! D30   D(20,7,17,19)        -177.8761         estimate D2E/DX2                !
 ! D31   D(20,7,17,37)          63.2667         estimate D2E/DX2                !
 ! D32   D(20,7,17,38)         -58.4011         estimate D2E/DX2                !
 ! D33   D(16,7,20,8)           -2.5918         estimate D2E/DX2                !
 ! D34   D(16,7,20,25)         177.899          estimate D2E/DX2                !
 ! D35   D(17,7,20,8)         -174.6142         estimate D2E/DX2                !
 ! D36   D(17,7,20,25)           5.8766         estimate D2E/DX2                !
 ! D37   D(20,8,14,6)          179.7145         estimate D2E/DX2                !
 ! D38   D(20,8,14,21)           0.1643         estimate D2E/DX2                !
 ! D39   D(14,8,20,7)         -179.1009         estimate D2E/DX2                !
 ! D40   D(14,8,20,25)           0.4274         estimate D2E/DX2                !
 ! D41   D(3,9,19,15)         -179.9973         estimate D2E/DX2                !
 ! D42   D(3,9,19,17)           -1.4386         estimate D2E/DX2                !
 ! D43   D(43,10,22,15)         63.0359         estimate D2E/DX2                !
 ! D44   D(43,10,22,40)       -175.4175         estimate D2E/DX2                !
 ! D45   D(43,10,22,41)        -59.1665         estimate D2E/DX2                !
 ! D46   D(44,10,22,15)        -64.3985         estimate D2E/DX2                !
 ! D47   D(44,10,22,40)         57.148          estimate D2E/DX2                !
 ! D48   D(44,10,22,41)        173.3991         estimate D2E/DX2                !
 ! D49   D(6,11,12,30)         142.2882         estimate D2E/DX2                !
 ! D50   D(6,11,12,31)          -2.2943         estimate D2E/DX2                !
 ! D51   D(29,11,12,30)         -1.9878         estimate D2E/DX2                !
 ! D52   D(29,11,12,31)       -146.5703         estimate D2E/DX2                !
 ! D53   D(6,11,13,32)           1.4317         estimate D2E/DX2                !
 ! D54   D(6,11,13,33)        -142.0524         estimate D2E/DX2                !
 ! D55   D(29,11,13,32)        144.2807         estimate D2E/DX2                !
 ! D56   D(29,11,13,33)          0.7966         estimate D2E/DX2                !
 ! D57   D(30,12,13,32)       -147.4536         estimate D2E/DX2                !
 ! D58   D(30,12,13,33)         -0.7126         estimate D2E/DX2                !
 ! D59   D(31,12,13,32)         -2.0846         estimate D2E/DX2                !
 ! D60   D(31,12,13,33)        144.6564         estimate D2E/DX2                !
 ! D61   D(6,14,21,24)          -0.6083         estimate D2E/DX2                !
 ! D62   D(6,14,21,26)         179.8188         estimate D2E/DX2                !
 ! D63   D(8,14,21,24)         178.9343         estimate D2E/DX2                !
 ! D64   D(8,14,21,26)          -0.6387         estimate D2E/DX2                !
 ! D65   D(19,15,16,7)          27.0569         estimate D2E/DX2                !
 ! D66   D(19,15,16,35)        146.2392         estimate D2E/DX2                !
 ! D67   D(19,15,16,36)        -91.2234         estimate D2E/DX2                !
 ! D68   D(22,15,16,7)         149.9592         estimate D2E/DX2                !
 ! D69   D(22,15,16,35)        -90.8586         estimate D2E/DX2                !
 ! D70   D(22,15,16,36)         31.6788         estimate D2E/DX2                !
 ! D71   D(34,15,16,7)         -87.844          estimate D2E/DX2                !
 ! D72   D(34,15,16,35)         31.3383         estimate D2E/DX2                !
 ! D73   D(34,15,16,36)        153.8757         estimate D2E/DX2                !
 ! D74   D(16,15,19,9)         155.8281         estimate D2E/DX2                !
 ! D75   D(16,15,19,17)        -22.938          estimate D2E/DX2                !
 ! D76   D(22,15,19,9)          32.8683         estimate D2E/DX2                !
 ! D77   D(22,15,19,17)       -145.8977         estimate D2E/DX2                !
 ! D78   D(34,15,19,9)         -88.8573         estimate D2E/DX2                !
 ! D79   D(34,15,19,17)         92.3767         estimate D2E/DX2                !
 ! D80   D(16,15,22,10)         63.3043         estimate D2E/DX2                !
 ! D81   D(16,15,22,40)        -58.2793         estimate D2E/DX2                !
 ! D82   D(16,15,22,41)       -174.2398         estimate D2E/DX2                !
 ! D83   D(19,15,22,10)       -179.9734         estimate D2E/DX2                !
 ! D84   D(19,15,22,40)         58.443          estimate D2E/DX2                !
 ! D85   D(19,15,22,41)        -57.5176         estimate D2E/DX2                !
 ! D86   D(34,15,22,10)        -58.7305         estimate D2E/DX2                !
 ! D87   D(34,15,22,40)        179.6859         estimate D2E/DX2                !
 ! D88   D(34,15,22,41)         63.7254         estimate D2E/DX2                !
 ! D89   D(7,17,19,9)         -169.5541         estimate D2E/DX2                !
 ! D90   D(7,17,19,15)           9.1435         estimate D2E/DX2                !
 ! D91   D(37,17,19,9)         -48.872          estimate D2E/DX2                !
 ! D92   D(37,17,19,15)        129.8256         estimate D2E/DX2                !
 ! D93   D(38,17,19,9)          70.5048         estimate D2E/DX2                !
 ! D94   D(38,17,19,15)       -110.7976         estimate D2E/DX2                !
 ! D95   D(6,18,23,24)           0.4236         estimate D2E/DX2                !
 ! D96   D(6,18,23,27)        -179.6225         estimate D2E/DX2                !
 ! D97   D(39,18,23,24)       -179.6181         estimate D2E/DX2                !
 ! D98   D(39,18,23,27)          0.3358         estimate D2E/DX2                !
 ! D99   D(7,20,25,1)           -0.9673         estimate D2E/DX2                !
 ! D100  D(7,20,25,26)         178.9696         estimate D2E/DX2                !
 ! D101  D(8,20,25,1)          179.5353         estimate D2E/DX2                !
 ! D102  D(8,20,25,26)          -0.5278         estimate D2E/DX2                !
 ! D103  D(14,21,24,2)         179.5295         estimate D2E/DX2                !
 ! D104  D(14,21,24,23)         -0.8736         estimate D2E/DX2                !
 ! D105  D(26,21,24,2)          -0.9097         estimate D2E/DX2                !
 ! D106  D(26,21,24,23)        178.6871         estimate D2E/DX2                !
 ! D107  D(14,21,26,25)          0.5144         estimate D2E/DX2                !
 ! D108  D(14,21,26,42)       -179.7392         estimate D2E/DX2                !
 ! D109  D(24,21,26,25)       -179.0796         estimate D2E/DX2                !
 ! D110  D(24,21,26,42)          0.6667         estimate D2E/DX2                !
 ! D111  D(18,23,24,2)        -179.4485         estimate D2E/DX2                !
 ! D112  D(18,23,24,21)          0.9854         estimate D2E/DX2                !
 ! D113  D(27,23,24,2)           0.6032         estimate D2E/DX2                !
 ! D114  D(27,23,24,21)       -178.9629         estimate D2E/DX2                !
 ! D115  D(18,23,27,4)        -179.7667         estimate D2E/DX2                !
 ! D116  D(18,23,27,5)           0.2277         estimate D2E/DX2                !
 ! D117  D(24,23,27,4)           0.1849         estimate D2E/DX2                !
 ! D118  D(24,23,27,5)        -179.8207         estimate D2E/DX2                !
 ! D119  D(1,25,26,21)         179.9703         estimate D2E/DX2                !
 ! D120  D(1,25,26,42)           0.2334         estimate D2E/DX2                !
 ! D121  D(20,25,26,21)          0.0346         estimate D2E/DX2                !
 ! D122  D(20,25,26,42)       -179.7023         estimate D2E/DX2                !
 --------------------------------------------------------------------------------
 Trust Radius=3.00D-01 FncErr=1.00D-07 GrdErr=1.00D-06
 Number of steps in this run=    271 maximum allowed number of steps=    288.
 GradGradGradGradGradGradGradGradGradGradGradGradGradGradGradGradGradGrad

                          Input orientation:                          
 ---------------------------------------------------------------------
 Center     Atomic      Atomic             Coordinates (Angstroms)
 Number     Number       Type             X           Y           Z
 ---------------------------------------------------------------------
      1          9           0       -1.152476   -2.953946   -0.046945
      2          8           0        3.895574   -2.744043    0.018073
      3          8           0       -5.625653   -1.889900    0.355135
      4          8           0        6.383152   -1.625844   -0.065211
      5          8           0        6.544007    0.649387   -0.131016
      6          7           0        2.488892    1.161117   -0.088795
      7          7           0       -1.946066   -0.231116   -0.164301
      8          7           0        0.276508    0.396205   -0.112244
      9          7           0       -5.518620   -0.463895   -0.049847
     10          7           0       -4.238403    3.686717   -0.492215
     11          6           0        1.983325    2.529222   -0.126756
     12          6           0        2.744922    3.613444    0.620080
     13          6           0        1.395177    3.123840    1.136397
     14          6           0        1.581323    0.089832   -0.077350
     15          6           0       -3.804525    1.178838   -0.667386
     16          6           0       -2.339922    1.198840   -0.167728
     17          6           0       -3.114443   -1.137671   -0.059992
     18          6           0        3.822576    0.891115   -0.105694
     19          6           0       -4.282016   -0.197168   -0.241129
     20          6           0       -0.637892   -0.595450   -0.109008
     21          6           0        2.079868   -1.217042   -0.040031
     22          6           0       -4.667428    2.333936   -0.101909
     23          6           0        4.369424   -0.362460   -0.073047
     24          6           0        3.519925   -1.555983   -0.024292
     25          6           0       -0.204848   -1.951855   -0.059383
     26          6           0        1.126973   -2.249333   -0.026161
     27          6           0        5.839544   -0.367363   -0.092937
     28          6           0       -7.034478   -2.141386    0.670013
     29          1           0        1.512107    2.790599   -1.066085
     30          1           0        2.800074    4.586277    0.147776
     31          1           0        3.620337    3.327140    1.189126
     32          1           0        1.406092    2.494537    2.016736
     33          1           0        0.529700    3.765144    1.028391
     34          1           0       -3.809567    1.224628   -1.766136
     35          1           0       -1.663438    1.763148   -0.808145
     36          1           0       -2.287331    1.612290    0.850391
     37          1           0       -3.178805   -1.642002    0.909991
     38          1           0       -3.103075   -1.909187   -0.833448
     39          1           0        4.493732    1.738500   -0.147552
     40          1           0       -4.655583    2.269423    0.991839
     41          1           0       -5.702162    2.182897   -0.421993
     42          1           0        1.482104   -3.271133    0.006961
     43          1           0       -4.293669    3.852337   -1.499418
     44          1           0       -3.316327    3.940095   -0.132245
     45          1           0        7.374716   -1.519768   -0.082412
     46          1           0       -7.673273   -1.947055   -0.196398
     47          1           0       -7.369754   -1.531822    1.514710
     48          1           0       -7.071454   -3.200667    0.934274
 ---------------------------------------------------------------------
                    Distance matrix (angstroms):
                    1          2          3          4          5
     1  F    0.000000
     2  O    5.052830   0.000000
     3  O    4.615536   9.565403   0.000000
     4  O    7.651789   2.728617  12.019060   0.000000
     5  O    8.498643   4.307179  12.441260   2.281859   0.000000
     6  N    5.495003   4.152162   8.680531   4.788838   4.087494
     7  N    2.838549   6.361825   4.069489   8.445766   8.535674
     8  N    3.642770   4.793306   6.346670   6.432884   6.272639
     9  N    5.026288   9.686627   1.486256  11.958367  12.114163
    10  N    7.336185  10.381553   5.808711  11.883731  11.207863
    11  C    6.317021   5.611149   8.812344   6.052011   4.932912
    12  C    7.665849   6.488764  10.021153   6.415332   4.876764
    13  C    6.695545   6.475700   8.662564   6.991656   5.851470
    14  C    4.091353   3.660015   7.486447   5.099142   4.994418
    15  C    4.949567   8.668932   3.712036  10.583838  10.375940
    16  C    4.320908   7.379855   4.539794   9.169589   8.900980
    17  C    2.673638   7.192139   2.654120   9.510134   9.822641
    18  C    6.288011   3.637997   9.859789   3.590720   2.732263
    19  C    4.175111   8.568940   2.241926  10.761871  10.859630
    20  C    2.414778   5.018457   5.173856   7.096386   7.289018
    21  C    3.669459   2.373162   7.744930   4.322731   4.839460
    22  C    6.349772   9.956167   4.355212  11.738676  11.337320
    23  C    6.099825   2.429974  10.120177   2.377247   2.399168
    24  C    4.877104   1.246753   9.159534   2.864371   3.744345
    25  C    1.379253   4.176963   5.436984   6.596064   7.233162
    26  C    2.385959   2.812800   6.772927   5.293173   6.144740
    27  C    7.455258   3.072450  11.574525   1.371150   1.237537
    28  C    5.980989  10.966050   1.465326  13.447644  13.885435
    29  H    6.413926   6.122791   8.653008   6.650849   5.547897
    30  H    8.515605   7.412863  10.629052   7.174556   5.440024
    31  H    7.984964   6.189215  10.649008   5.808490   4.178634
    32  H    6.363255   6.134729   8.451606   6.788459   5.866480
    33  H    7.009439   7.397254   8.385772   8.032535   6.871976
    34  H    5.241777   8.848895   4.183090  10.719602  10.497667
    35  H    4.805360   7.204167   5.513359   8.762695   8.310302
    36  H    4.789950   7.609120   4.863641   9.300598   8.937722
    37  H    2.596716   7.215043   2.521187   9.611571  10.043268
    38  H    2.348392   7.099518   2.788638   9.521501  10.005294
    39  H    7.342264   4.525308  10.761967   3.859469   2.321652
    40  H    6.374513   9.960188   4.318147  11.753473  11.371725
    41  H    6.872224  10.797450   4.146982  12.676301  12.345241
    42  H    2.654152   2.470382   7.249085   5.170344   6.404091
    43  H    7.635592  10.624439   6.179550  12.085608  11.383613
    44  H    7.226156   9.834216   6.289624  11.183205  10.394948
    45  H    8.647030   3.689631  13.012995   0.997370   2.323289
    46  H    6.599770  11.598250   2.121368  14.060707  14.452572
    47  H    6.566258  11.428780   2.124788  13.843678  14.179522
    48  H    6.004828  11.014701   2.035646  13.583279  14.189381
                    6          7          8          9         10
     6  N    0.000000
     7  N    4.648964   0.000000
     8  N    2.341000   2.309995   0.000000
     9  N    8.170828   3.581959   5.858940   0.000000
    10  N    7.197076   4.551017   5.599667   4.366031   0.000000
    11  C    1.459024   4.802186   2.731885   8.077366   6.339026
    12  C    2.565534   6.115657   4.120679   9.239027   7.071732
    13  C    2.559217   4.910341   3.201643   7.879061   5.891216
    14  C    1.404088   3.543027   1.340755   7.121556   6.854116
    15  C    6.319983   2.386406   4.192318   2.453171   2.551155
    16  C    4.829606   1.483209   2.737336   3.589248   3.146276
    17  C    6.056618   1.482507   3.722104   2.496827   4.972406
    18  C    1.360845   5.877080   3.580444   9.439127   8.540736
    19  C    6.907484   2.337460   4.598787   1.279422   3.892237
    20  C    3.586463   1.359086   1.348895   4.882859   5.607805
    21  C    2.413570   4.146762   2.420721   7.635728   8.010735
    22  C    7.251799   3.740213   5.310123   2.924910   1.471876
    23  C    2.420317   6.317515   4.162820   9.888591   9.521881
    24  C    2.906858   5.626005   3.786625   9.104318   9.375314
    25  C    4.116758   2.450263   2.397474   5.518178   6.946251
    26  C    3.672862   3.679110   2.780211   6.881298   8.015058
    27  C    3.682816   7.787129   5.615227  11.358656  10.870143
    28  C   10.108259   5.498832   7.778291   2.372762   6.567769
    29  H    2.136449   4.680057   2.858258   7.813808   5.848138
    30  H    3.447393   6.769824   4.898234   9.733651   7.124532
    31  H    2.757699   6.743722   4.633048   9.971336   8.044625
    32  H    2.717301   4.839739   3.195546   7.808631   6.290982
    33  H    3.444923   4.849951   3.565796   7.458521   5.005317
    34  H    6.518289   2.856169   4.485271   2.952562   2.805113
    35  H    4.256965   2.114593   2.473096   4.516322   3.229609
    36  H    4.888551   2.131715   2.996464   3.944896   3.148416
    37  H    6.401394   2.159710   4.139860   2.789975   5.611076
    38  H    6.422723   2.145309   4.154100   2.921944   5.720101
    39  H    2.087153   6.734290   4.425831  10.252184   8.953464
    40  H    7.310242   3.864044   5.390127   3.049749   2.094082
    41  H    8.261260   4.472373   6.247616   2.679121   2.099761
    42  H    4.546167   4.585126   3.862258   7.542808   9.021367
    43  H    7.432069   4.895750   5.895390   4.715042   1.022224
    44  H    6.436239   4.390631   5.046585   4.924633   1.021765
    45  H    5.573012   9.409798   7.352306  12.936539  12.733419
    46  H   10.627413   5.978827   8.288363   2.619880   6.604940
    47  H   10.344856   5.824715   8.051682   2.648585   6.408296
    48  H   10.558032   6.024508   8.247741   3.296924   7.582685
                   11         12         13         14         15
    11  C    0.000000
    12  C    1.520964   0.000000
    13  C    1.514940   1.525814   0.000000
    14  C    2.472786   3.775740   3.273078   0.000000
    15  C    5.967833   7.104937   5.837257   5.526431   0.000000
    16  C    4.523501   5.683889   4.399697   4.076056   1.547618
    17  C    6.279952   7.574150   6.318900   4.853585   2.492259
    18  C    2.463064   3.016482   3.524219   2.380351   7.653166
    19  C    6.833797   8.039919   6.719910   5.872643   1.517592
    20  C    4.078562   5.448834   4.417864   2.322828   3.672526
    21  C    3.748511   4.920532   4.549290   1.399235   6.384348
    22  C    6.653666   7.556543   6.237991   6.639540   1.548747
    23  C    3.749424   4.350545   4.739535   2.824552   8.339201
    24  C    4.365838   5.266766   5.269013   2.543560   7.844768
    25  C    4.987253   6.335248   5.454599   2.712787   4.809218
    26  C    4.855723   6.116170   5.504041   2.383432   6.040132
    27  C    4.823046   5.092338   5.783784   4.282723   9.784109
    28  C   10.186765  11.347124   9.949834   8.931344   4.821319
    29  H    1.082914   2.245008   2.230616   2.876896   5.569857
    30  H    2.230229   1.082828   2.256065   4.664124   7.476353
    31  H    2.246781   1.082652   2.235050   4.030100   7.949240
    32  H    2.220126   2.234965   1.082191   3.193510   6.007171
    33  H    2.230447   2.257640   1.082583   3.979509   5.324485
    34  H    6.160124   7.373045   6.254683   5.762070   1.099715
    35  H    3.788145   4.989695   3.871415   3.723241   2.223845
    36  H    4.475945   5.420446   3.990921   4.259703   2.189385
    37  H    6.717257   7.924286   6.609525   5.160708   3.291927
    38  H    6.787514   8.173816   7.031779   5.148917   3.171042
    39  H    2.632075   2.676380   3.628875   3.347411   8.333338
    40  H    6.737496   7.530742   6.112497   6.692741   2.160255
    41  H    7.698949   8.630505   7.327085   7.586096   2.160874
    42  H    5.823506   7.026238   6.494526   3.363486   6.943013
    43  H    6.560144   7.354666   6.311988   7.119990   2.842382
    44  H    5.484241   6.116489   4.947120   6.230130   2.854690
    45  H    6.742654   6.948263   7.668343   6.012840  11.515212
    46  H   10.643862  11.837423  10.475071   9.476847   4.996023
    47  H   10.327951  11.383356   9.931884   9.235053   4.981975
    48  H   10.767843  11.953747  10.569961   9.312428   5.693699
                   16         17         18         19         20
    16  C    0.000000
    17  C    2.463894   0.000000
    18  C    6.170488   7.227745   0.000000
    19  C    2.392897   1.510160   8.178454   0.000000
    20  C    2.473829   2.535687   4.701666   3.668204   0.000000
    21  C    5.038585   5.194956   2.735995   6.446251   2.788791
    22  C    2.590378   3.803364   8.611731   2.564062   4.981818
    23  C    6.889263   7.523921   1.368049   8.654651   5.012863
    24  C    6.476684   6.647639   2.467086   7.922353   4.268166
    25  C    3.807513   3.021364   4.929987   4.442438   1.424719
    26  C    4.891758   4.384809   4.139446   5.789193   2.420112
    27  C    8.328400   8.987121   2.377412  10.124075   6.481470
    28  C    5.822180   4.111815  11.299266   3.490875   6.626696
    29  H    4.263669   6.152113   3.141442   6.571086   4.123569
    30  H    6.163914   8.233363   3.842392   8.555033   6.223813
    31  H    6.472666   8.176313   2.766167   8.770038   5.933328
    32  H    4.525852   6.159624   3.593754   6.685642   4.271379
    33  H    4.031296   6.204994   4.515443   6.361148   4.655290
    34  H    2.171504   2.995761   7.817794   2.137840   4.014758
    35  H    1.089132   3.328648   5.599127   3.319834   2.665243
    36  H    1.100124   3.012507   6.226167   2.905912   2.918084
    37  H    3.152076   1.095153   7.514495   2.151673   2.930848
    38  H    3.268856   1.092520   7.505728   2.161424   2.885801
    39  H    6.854959   8.134147   1.081787   8.987175   5.637586
    40  H    2.802326   3.884553   8.659301   2.782774   5.055809
    41  H    3.512503   4.225341   9.617140   2.777451   5.784808
    42  H    5.883796   5.067977   4.776485   6.537269   3.415715
    43  H    3.554092   5.325664   8.751270   4.240509   5.922901
    44  H    2.910173   5.082291   7.762791   4.249865   5.267421
    45  H   10.088226  10.496140   4.293087  11.732598   8.065789
    46  H    6.192101   4.632131  11.841367   3.816376   7.164570
    47  H    5.965427   4.554417  11.565664   3.794522   6.987934
    48  H    6.554194   4.571920  11.683497   4.264217   7.018997
                   21         22         23         24         25
    21  C    0.000000
    22  C    7.624912   0.000000
    23  C    2.444068   9.430593   0.000000
    24  C    1.479491   9.064780   1.465784   0.000000
    25  C    2.400052   6.187442   4.842554   3.745915   0.000000
    26  C    1.404929   7.388313   3.751796   2.491377   1.365044
    27  C    3.854856  10.848666   1.470263   2.607329   6.248713
    28  C    9.188573   5.121259  11.565712  10.593403   6.871083
    29  H    4.175683   6.270951   4.369458   4.899943   5.143175
    30  H    5.850853   7.803779   5.196308   6.186691   7.198586
    31  H    4.953126   8.446317   3.970814   5.032629   6.637665
    32  H    4.296520   6.434446   4.616380   5.004078   5.164862
    33  H    5.326042   5.507819   5.744020   6.193866   5.865739
    34  H    6.605046   2.176268   8.501841   8.030397   5.098730
    35  H    4.846016   3.138236   6.438478   6.204700   4.060711
    36  H    5.279242   2.663177   7.004624   6.672874   4.227003
    37  H    5.360669   4.364404   7.718766   6.764116   3.143265
    38  H    5.288806   4.581096   7.668691   6.681588   3.000119
    39  H    3.817529   9.180603   2.105953   3.437603   5.975211
    40  H    7.654181   1.095713   9.461054   9.083236   6.223608
    41  H    8.500910   1.093591  10.394107   9.959130   6.888260
    42  H    2.139818   8.321382   4.099195   2.663725   2.142593
    43  H    8.273475   2.097205   9.739006   9.616557   7.244364
    44  H    7.464817   2.099081   8.808306   8.772278   6.663459
    45  H    5.303664  12.643759   3.220439   3.855399   7.591905
    46  H    9.781673   5.231722  12.147128  11.201350   7.469683
    47  H    9.581840   4.985991  11.903641  10.997919   7.347794
    48  H    9.414390   6.122487  11.830630  10.761094   7.049622
                   26         27         28         29         30
    26  C    0.000000
    27  C    5.074899   0.000000
    28  C    8.191800  13.018053   0.000000
    29  H    5.160493   5.444856  10.019113   0.000000
    30  H    7.039537   5.816775  11.926969   2.521265   0.000000
    31  H    6.228229   4.496434  11.987466   3.133446   1.828296
    32  H    5.172585   5.683018   9.723614   3.098819   3.132343
    33  H    6.135369   6.821249   9.603766   2.510317   2.569891
    34  H    6.282145   9.921662   5.259746   5.591292   7.658400
    35  H    4.949535   7.832327   6.802823   3.347577   5.367195
    36  H    5.228570   8.417541   6.054587   4.415543   5.934640
    37  H    4.448028   9.163034   3.895278   6.749628   8.667146
    38  H    4.319805   9.104725   4.215476   6.591056   8.831819
    39  H    5.220404   2.499770  12.191044   3.292522   3.326489
    40  H    7.409010  10.875526   5.021748   6.522812   7.852839
    41  H    8.150977  11.824681   4.654779   7.268413   8.853750
    42  H    1.082262   5.237284   8.616736   6.156048   7.968423
    43  H    8.293625  11.066439   6.938529   5.917947   7.319365
    44  H    7.619920  10.118583   7.173052   5.050463   6.156811
    45  H    6.290447   1.919610  14.442210   7.342824   7.633094
    46  H    8.807081  13.605233   1.093843  10.371737  12.348841
    47  H    8.665072  13.357621   1.094299  10.209372  11.946759
    48  H    8.309132  13.258078   1.092372  10.657121  12.597704
                   31         32         33         34         35
    31  H    0.000000
    32  H    2.506202   0.000000
    33  H    3.125655   1.832848   0.000000
    34  H    8.267866   6.567030   5.752638   0.000000
    35  H    5.861181   4.235197   3.491519   2.411145   0.000000
    36  H    6.160844   3.972417   3.549948   3.051835   1.778410
    37  H    8.426068   6.273525   6.557763   3.972038   4.104068
    38  H    8.758664   6.917291   6.990102   3.345121   3.944520
    39  H    2.252400   3.845680   4.604745   8.475179   6.192555
    40  H    8.345570   6.151829   5.396821   3.068186   3.528341
    41  H    9.529637   7.521422   6.591147   2.511357   4.078798
    42  H    7.036104   6.106384   7.173534   7.166416   5.991896
    43  H    8.374699   6.833318   5.446312   2.685209   3.429385
    44  H    7.087951   5.386000   4.021145   3.207280   2.815667
    45  H    6.261365   7.493033   8.718854  11.638506   9.643259
    46  H   12.541229  10.347008  10.070655   5.239454   7.089285
    47  H   12.020716   9.668457   9.523430   5.571077   6.986739
    48  H   12.529629  10.270144  10.310622   6.124978   7.544675
                   36         37         38         39         40
    36  H    0.000000
    37  H    3.374714   0.000000
    38  H    3.987675   1.765418   0.000000
    39  H    6.855263   8.450681   8.455031   0.000000
    40  H    2.461798   4.181724   4.816922   9.235262   0.000000
    41  H    3.688580   4.771935   4.865152  10.209263   1.761174
    42  H    6.226382   5.019323   4.856444   5.847239   8.327001
    43  H    3.816386   6.102125   5.920827   9.138614   2.973711
    44  H    2.728201   5.680227   5.895020   8.114449   2.418329
    45  H   10.199758  10.600783  10.511889   4.349784  12.658597
    46  H    6.540113   4.638685   4.614540  12.713053   5.319497
    47  H    6.013134   4.235785   4.884752  12.417746   4.699956
    48  H    6.786709   4.193178   4.532195  12.622173   5.980103
                   41         42         43         44         45
    41  H    0.000000
    42  H    9.030178   0.000000
    43  H    2.435514   9.293684   0.000000
    44  H    2.977231   8.662917   1.682873   0.000000
    45  H   13.595212   6.148019  12.923569  12.004624   0.000000
    46  H    4.581776   9.252863   6.837582   7.324318  15.054486
    47  H    4.508971   9.146251   6.894667   7.006041  14.830723
    48  H    5.718145   8.603966   7.961395   8.138115  14.579125
                   46         47         48
    46  H    0.000000
    47  H    1.786738   0.000000
    48  H    1.792247   1.791907   0.000000
 Stoichiometry    C18H20FN5O4
 Framework group  C1[X(C18H20FN5O4)]
 Deg. of freedom   138
 Full point group                 C1      NOp   1
 Largest Abelian subgroup         C1      NOp   1
 Largest concise Abelian subgroup C1      NOp   1
                         Standard orientation:                         
 ---------------------------------------------------------------------
 Center     Atomic      Atomic             Coordinates (Angstroms)
 Number     Number       Type             X           Y           Z
 ---------------------------------------------------------------------
      1          9           0       -1.152476   -2.953946   -0.046945
      2          8           0        3.895574   -2.744043    0.018073
      3          8           0       -5.625653   -1.889900    0.355135
      4          8           0        6.383152   -1.625844   -0.065211
      5          8           0        6.544007    0.649387   -0.131016
      6          7           0        2.488892    1.161117   -0.088795
      7          7           0       -1.946066   -0.231116   -0.164301
      8          7           0        0.276508    0.396205   -0.112244
      9          7           0       -5.518620   -0.463895   -0.049847
     10          7           0       -4.238403    3.686717   -0.492215
     11          6           0        1.983325    2.529222   -0.126756
     12          6           0        2.744922    3.613444    0.620080
     13          6           0        1.395177    3.123840    1.136397
     14          6           0        1.581323    0.089832   -0.077350
     15          6           0       -3.804525    1.178838   -0.667386
     16          6           0       -2.339922    1.198840   -0.167728
     17          6           0       -3.114443   -1.137671   -0.059992
     18          6           0        3.822576    0.891115   -0.105694
     19          6           0       -4.282016   -0.197168   -0.241129
     20          6           0       -0.637892   -0.595450   -0.109008
     21          6           0        2.079868   -1.217042   -0.040031
     22          6           0       -4.667428    2.333936   -0.101909
     23          6           0        4.369424   -0.362460   -0.073047
     24          6           0        3.519925   -1.555983   -0.024292
     25          6           0       -0.204848   -1.951855   -0.059383
     26          6           0        1.126973   -2.249333   -0.026161
     27          6           0        5.839544   -0.367363   -0.092937
     28          6           0       -7.034478   -2.141386    0.670013
     29          1           0        1.512107    2.790599   -1.066085
     30          1           0        2.800074    4.586277    0.147776
     31          1           0        3.620337    3.327140    1.189126
     32          1           0        1.406092    2.494537    2.016736
     33          1           0        0.529700    3.765144    1.028391
     34          1           0       -3.809567    1.224628   -1.766136
     35          1           0       -1.663438    1.763148   -0.808145
     36          1           0       -2.287331    1.612290    0.850391
     37          1           0       -3.178805   -1.642002    0.909991
     38          1           0       -3.103075   -1.909187   -0.833448
     39          1           0        4.493732    1.738500   -0.147552
     40          1           0       -4.655583    2.269423    0.991839
     41          1           0       -5.702162    2.182897   -0.421993
     42          1           0        1.482104   -3.271133    0.006961
     43          1           0       -4.293669    3.852337   -1.499418
     44          1           0       -3.316327    3.940095   -0.132245
     45          1           0        7.374716   -1.519768   -0.082412
     46          1           0       -7.673273   -1.947055   -0.196398
     47          1           0       -7.369754   -1.531822    1.514710
     48          1           0       -7.071454   -3.200667    0.934274
 ---------------------------------------------------------------------
 Rotational constants (GHZ):      0.3358434      0.0836902      0.0680755
 Standard basis: LANL2DZ (5D, 7F)
 There are   292 symmetry adapted cartesian basis functions of A   symmetry.
 There are   292 symmetry adapted basis functions of A   symmetry.
   292 basis functions,   780 primitive gaussians,   292 cartesian basis functions
   102 alpha electrons      102 beta electrons
       nuclear repulsion energy      2596.1949935733 Hartrees.
 NAtoms=   48 NActive=   48 NUniq=   48 SFac= 1.00D+00 NAtFMM=   60 NAOKFM=F Big=F
 Integral buffers will be    131072 words long.
 Raffenetti 2 integral format.
 Two-electron integral symmetry is turned on.
 One-electron integrals computed using PRISM.
 PrsmSu:  requested number of processors reduced to:   8 ShMem   1 Linda.
   1 Symmetry operations used in ECPInt.
 ECPInt:  NShTT=   16290 NPrTT=  126094 LenC2=   13773 LenP2D=   56798.
 LDataN:  DoStor=T MaxTD1= 2 Len=   12
 Number of processors reduced to   8 by ecpmxn.
 NBasis=   292 RedAO= T EigKep=  4.83D-04  NBF=   292
 NBsUse=   292 1.00D-06 EigRej= -1.00D+00 NBFU=   292
 ExpMin= 1.15D-01 ExpMax= 1.00D+04 ExpMxC= 3.50D+02 IAcc=3 IRadAn=         5 AccDes= 0.00D+00
 Harris functional with IExCor= 1009 and IRadAn=       5 diagonalized for initial guess.
 HarFok:  IExCor= 1009 AccDes= 0.00D+00 IRadAn=         5 IDoV= 1 UseB2=F ITyADJ=14
 ICtDFT=  3500011 ScaDFX=  1.000000  1.000000  1.000000  1.000000
 FoFCou: FMM=F IPFlag=           0 FMFlag=      100000 FMFlg1=           0
         NFxFlg=           0 DoJE=T BraDBF=F KetDBF=T FulRan=T
         wScrn=  0.000000 ICntrl=     500 IOpCl=  0 I1Cent=   200000004 NGrid=           0
         NMat0=    1 NMatS0=      1 NMatT0=    0 NMatD0=    1 NMtDS0=    0 NMtDT0=    0
 Petite list used in FoFCou.
 Requested convergence on RMS density matrix=1.00D-08 within 128 cycles.
 Requested convergence on MAX density matrix=1.00D-06.
 Requested convergence on             energy=1.00D-06.
 No special actions if energy rises.
 Integral accuracy reduced to 1.0D-05 until final iterations.
 EnCoef did     2 forward-backward iterations
 Initial convergence to 1.0D-05 achieved.  Increase integral accuracy.
 SCF Done:  E(RM06) =  -1371.32480817     A.U. after   18 cycles
            NFock= 18  Conv=0.53D-08     -V/T= 2.0048

 **********************************************************************

            Population analysis using the SCF density.

 **********************************************************************

 Orbital symmetries:
       Occupied  (A) (A) (A) (A) (A) (A) (A) (A) (A) (A) (A) (A)
                 (A) (A) (A) (A) (A) (A) (A) (A) (A) (A) (A) (A)
                 (A) (A) (A) (A) (A) (A) (A) (A) (A) (A) (A) (A)
                 (A) (A) (A) (A) (A) (A) (A) (A) (A) (A) (A) (A)
                 (A) (A) (A) (A) (A) (A) (A) (A) (A) (A) (A) (A)
                 (A) (A) (A) (A) (A) (A) (A) (A) (A) (A) (A) (A)
                 (A) (A) (A) (A) (A) (A) (A) (A) (A) (A) (A) (A)
                 (A) (A) (A) (A) (A) (A) (A) (A) (A) (A) (A) (A)
                 (A) (A) (A) (A) (A) (A)
       Virtual   (A) (A) (A) (A) (A) (A) (A) (A) (A) (A) (A) (A)
                 (A) (A) (A) (A) (A) (A) (A) (A) (A) (A) (A) (A)
                 (A) (A) (A) (A) (A) (A) (A) (A) (A) (A) (A) (A)
                 (A) (A) (A) (A) (A) (A) (A) (A) (A) (A) (A) (A)
                 (A) (A) (A) (A) (A) (A) (A) (A) (A) (A) (A) (A)
                 (A) (A) (A) (A) (A) (A) (A) (A) (A) (A) (A) (A)
                 (A) (A) (A) (A) (A) (A) (A) (A) (A) (A) (A) (A)
                 (A) (A) (A) (A) (A) (A) (A) (A) (A) (A) (A) (A)
                 (A) (A) (A) (A) (A) (A) (A) (A) (A) (A) (A) (A)
                 (A) (A) (A) (A) (A) (A) (A) (A) (A) (A) (A) (A)
                 (A) (A) (A) (A) (A) (A) (A) (A) (A) (A) (A) (A)
                 (A) (A) (A) (A) (A) (A) (A) (A) (A) (A) (A) (A)
                 (A) (A) (A) (A) (A) (A) (A) (A) (A) (A) (A) (A)
                 (A) (A) (A) (A) (A) (A) (A) (A) (A) (A) (A) (A)
                 (A) (A) (A) (A) (A) (A) (A) (A) (A) (A) (A) (A)
                 (A) (A) (A) (A) (A) (A) (A) (A) (A) (A)
 The electronic state is 1-A.
 Alpha  occ. eigenvalues --  -24.81502 -19.27052 -19.26297 -19.21825 -19.19164
 Alpha  occ. eigenvalues --  -14.48741 -14.47212 -14.45308 -14.42349 -14.39252
 Alpha  occ. eigenvalues --  -10.40346 -10.37157 -10.36359 -10.36275 -10.34627
 Alpha  occ. eigenvalues --  -10.33573 -10.32526 -10.31975 -10.31160 -10.30812
 Alpha  occ. eigenvalues --  -10.29882 -10.29132 -10.28988 -10.28655 -10.28077
 Alpha  occ. eigenvalues --  -10.27992 -10.27683 -10.27675  -1.27169  -1.13549
 Alpha  occ. eigenvalues --   -1.09298  -1.05596  -1.04889  -1.04417  -1.02100
 Alpha  occ. eigenvalues --   -0.96990  -0.92139  -0.90663  -0.90145  -0.85748
 Alpha  occ. eigenvalues --   -0.83440  -0.82399  -0.79374  -0.76346  -0.72310
 Alpha  occ. eigenvalues --   -0.71507  -0.69480  -0.68540  -0.66973  -0.64582
 Alpha  occ. eigenvalues --   -0.63677  -0.63117  -0.62717  -0.59326  -0.58415
 Alpha  occ. eigenvalues --   -0.57359  -0.56765  -0.55228  -0.54232  -0.53414
 Alpha  occ. eigenvalues --   -0.52756  -0.52174  -0.51113  -0.50293  -0.49801
 Alpha  occ. eigenvalues --   -0.48933  -0.48483  -0.48059  -0.47809  -0.47017
 Alpha  occ. eigenvalues --   -0.46597  -0.46067  -0.45520  -0.45379  -0.44642
 Alpha  occ. eigenvalues --   -0.44402  -0.43663  -0.43383  -0.41707  -0.41648
 Alpha  occ. eigenvalues --   -0.40794  -0.40713  -0.40252  -0.40104  -0.39859
 Alpha  occ. eigenvalues --   -0.39459  -0.38671  -0.37598  -0.36523  -0.34254
 Alpha  occ. eigenvalues --   -0.33938  -0.33672  -0.32670  -0.31357  -0.30189
 Alpha  occ. eigenvalues --   -0.30029  -0.29395  -0.27468  -0.25913  -0.24879
 Alpha  occ. eigenvalues --   -0.24812  -0.23656
 Alpha virt. eigenvalues --   -0.06272  -0.04776  -0.01746  -0.01162   0.02507
 Alpha virt. eigenvalues --    0.04675   0.07093   0.08421   0.08899   0.09486
 Alpha virt. eigenvalues --    0.09998   0.10409   0.10666   0.11307   0.11430
 Alpha virt. eigenvalues --    0.12325   0.12939   0.13754   0.14066   0.15251
 Alpha virt. eigenvalues --    0.15667   0.16107   0.16441   0.16933   0.17231
 Alpha virt. eigenvalues --    0.17552   0.17813   0.18444   0.19193   0.20067
 Alpha virt. eigenvalues --    0.20691   0.20850   0.21255   0.21584   0.21676
 Alpha virt. eigenvalues --    0.22334   0.22522   0.22853   0.23474   0.23957
 Alpha virt. eigenvalues --    0.24003   0.24401   0.25335   0.25381   0.25923
 Alpha virt. eigenvalues --    0.26251   0.26316   0.27117   0.27824   0.28124
 Alpha virt. eigenvalues --    0.28682   0.29093   0.29472   0.29786   0.30019
 Alpha virt. eigenvalues --    0.30284   0.30920   0.31445   0.31586   0.32240
 Alpha virt. eigenvalues --    0.32773   0.33626   0.33745   0.34451   0.35058
 Alpha virt. eigenvalues --    0.35488   0.36025   0.36301   0.36494   0.37167
 Alpha virt. eigenvalues --    0.37477   0.38270   0.38947   0.39161   0.39873
 Alpha virt. eigenvalues --    0.40494   0.40849   0.41916   0.42445   0.42729
 Alpha virt. eigenvalues --    0.43472   0.43784   0.44599   0.44673   0.45988
 Alpha virt. eigenvalues --    0.46736   0.47226   0.47582   0.48122   0.48249
 Alpha virt. eigenvalues --    0.49336   0.49892   0.50403   0.51066   0.51931
 Alpha virt. eigenvalues --    0.52554   0.53750   0.54381   0.55036   0.55237
 Alpha virt. eigenvalues --    0.56752   0.57166   0.58414   0.59209   0.60098
 Alpha virt. eigenvalues --    0.61234   0.62905   0.64010   0.65142   0.65527
 Alpha virt. eigenvalues --    0.66496   0.66576   0.68636   0.69322   0.69771
 Alpha virt. eigenvalues --    0.69918   0.71364   0.72431   0.73298   0.73903
 Alpha virt. eigenvalues --    0.74989   0.77157   0.78751   0.80101   0.80921
 Alpha virt. eigenvalues --    0.81729   0.84441   0.85124   0.87472   0.88211
 Alpha virt. eigenvalues --    0.88314   0.89130   0.90733   0.92349   0.93142
 Alpha virt. eigenvalues --    0.94990   0.95611   0.96535   0.97267   0.99329
 Alpha virt. eigenvalues --    0.99950   1.01029   1.01352   1.02436   1.03893
 Alpha virt. eigenvalues --    1.04018   1.05539   1.06069   1.06391   1.07449
 Alpha virt. eigenvalues --    1.08152   1.09291   1.10280   1.10520   1.11225
 Alpha virt. eigenvalues --    1.12430   1.13186   1.13885   1.16523   1.17423
 Alpha virt. eigenvalues --    1.18647   1.19889   1.21708   1.23376   1.24321
 Alpha virt. eigenvalues --    1.25547   1.27007   1.28574   1.30039   1.32887
 Alpha virt. eigenvalues --    1.34749   1.38999   1.39828   1.42135   1.47707
 Alpha virt. eigenvalues --    1.51031   1.55126   1.56424   1.57592   1.63860
 Alpha virt. eigenvalues --    1.69713   1.71504   1.73091   1.84690   1.86863
 Alpha virt. eigenvalues --    1.88256   1.92179   1.97449   2.00937   2.21095
          Condensed to atoms (all electrons):
               1          2          3          4          5          6
     1  F    9.071435   0.000003   0.000004   0.000000   0.000000   0.000002
     2  O    0.000003   7.787851   0.000000  -0.006444   0.000005   0.000120
     3  O    0.000004   0.000000   8.209410   0.000000   0.000000   0.000000
     4  O    0.000000  -0.006444   0.000000   8.084067  -0.083830   0.000000
     5  O    0.000000   0.000005   0.000000  -0.083830   7.884662   0.000704
     6  N    0.000002   0.000120   0.000000   0.000000   0.000704   6.687332
     7  N    0.006145   0.000000   0.000605   0.000000   0.000000   0.000528
     8  N    0.002387  -0.000120   0.000000   0.000000   0.000000  -0.070092
     9  N   -0.000009   0.000000   0.099397   0.000000   0.000000   0.000000
    10  N    0.000000   0.000000   0.000000   0.000000   0.000000   0.000000
    11  C   -0.000001   0.000000   0.000000   0.000005   0.000276   0.291404
    12  C    0.000000   0.000000   0.000000  -0.000001  -0.000004  -0.023225
    13  C    0.000000   0.000000   0.000000   0.000000   0.000002  -0.024356
    14  C    0.000156  -0.000421   0.000000  -0.000119  -0.000079   0.157980
    15  C    0.000003   0.000000   0.010305   0.000000   0.000000  -0.000003
    16  C    0.000065   0.000000  -0.000239   0.000000   0.000000  -0.000128
    17  C    0.010225   0.000000  -0.007995   0.000000   0.000000  -0.000004
    18  C    0.000001   0.001116   0.000000  -0.005805   0.006892   0.383749
    19  C    0.000376   0.000000  -0.070708   0.000000   0.000000   0.000000
    20  C   -0.051363  -0.000091   0.000153   0.000000   0.000000  -0.007796
    21  C   -0.001172  -0.087601   0.000000  -0.001242  -0.000431  -0.069499
    22  C    0.000000   0.000000  -0.000315   0.000000   0.000000   0.000000
    23  C   -0.000007  -0.070586   0.000000  -0.029031  -0.063655  -0.060161
    24  C   -0.000122   0.664326   0.000000   0.002371  -0.004209  -0.006227
    25  C    0.263869  -0.000405   0.000003  -0.000001   0.000000  -0.001427
    26  C   -0.047409  -0.007387   0.000000   0.000032   0.000006   0.012163
    27  C    0.000000  -0.007671   0.000000   0.248246   0.588871   0.007271
    28  C    0.000000   0.000000   0.205228   0.000000   0.000000   0.000000
    29  H    0.000000   0.000000   0.000000   0.000000   0.000000  -0.029870
    30  H    0.000000   0.000000   0.000000   0.000000   0.000000   0.000817
    31  H    0.000000   0.000000   0.000000   0.000000   0.000028  -0.007386
    32  H    0.000000   0.000000   0.000000   0.000000   0.000000  -0.004047
    33  H    0.000000   0.000000   0.000000   0.000000   0.000000   0.000520
    34  H   -0.000001   0.000000   0.000077   0.000000   0.000000   0.000000
    35  H   -0.000001   0.000000   0.000001   0.000000   0.000000  -0.000005
    36  H   -0.000003   0.000000  -0.000003   0.000000   0.000000   0.000014
    37  H   -0.003007   0.000000   0.002778   0.000000   0.000000   0.000000
    38  H   -0.002772   0.000000  -0.001204   0.000000   0.000000   0.000000
    39  H    0.000000  -0.000055   0.000000   0.000353   0.012879  -0.035979
    40  H    0.000000   0.000000  -0.000023   0.000000   0.000000   0.000000
    41  H    0.000000   0.000000  -0.000021   0.000000   0.000000   0.000000
    42  H    0.001104   0.011009   0.000000   0.000000   0.000000  -0.000084
    43  H    0.000000   0.000000   0.000000   0.000000   0.000000   0.000000
    44  H    0.000000   0.000000   0.000000   0.000000   0.000000   0.000000
    45  H    0.000000   0.000375   0.000000   0.245388   0.003264   0.000001
    46  H    0.000000   0.000000  -0.038509   0.000000   0.000000   0.000000
    47  H    0.000000   0.000000  -0.039041   0.000000   0.000000   0.000000
    48  H    0.000000   0.000000  -0.030695   0.000000   0.000000   0.000000
               7          8          9         10         11         12
     1  F    0.006145   0.002387  -0.000009   0.000000  -0.000001   0.000000
     2  O    0.000000  -0.000120   0.000000   0.000000   0.000000   0.000000
     3  O    0.000605   0.000000   0.099397   0.000000   0.000000   0.000000
     4  O    0.000000   0.000000   0.000000   0.000000   0.000005  -0.000001
     5  O    0.000000   0.000000   0.000000   0.000000   0.000276  -0.000004
     6  N    0.000528  -0.070092   0.000000   0.000000   0.291404  -0.023225
     7  N    6.947121  -0.080518   0.000799   0.001092   0.000181  -0.000005
     8  N   -0.080518   6.366470  -0.000001   0.000012  -0.002069   0.000238
     9  N    0.000799  -0.000001   6.429135  -0.000376   0.000000   0.000000
    10  N    0.001092   0.000012  -0.000376   6.784668   0.000000   0.000000
    11  C    0.000181  -0.002069   0.000000   0.000000   5.239884   0.155776
    12  C   -0.000005   0.000238   0.000000   0.000000   0.155776   5.586445
    13  C   -0.000096   0.001100   0.000000  -0.000001   0.149003   0.129822
    14  C   -0.002590   0.478520  -0.000001   0.000004  -0.021114   0.002056
    15  C   -0.051520   0.001140  -0.060537  -0.066730  -0.000024  -0.000003
    16  C    0.263270   0.007034   0.003154   0.004971  -0.000255  -0.000083
    17  C    0.247260  -0.001096  -0.035328  -0.000630  -0.000007   0.000000
    18  C    0.000061  -0.008317   0.000000   0.000000  -0.054589   0.014510
    19  C   -0.062935   0.000008   0.605879   0.015565  -0.000001   0.000000
    20  C    0.195712   0.494413  -0.000949   0.000287  -0.003230  -0.000068
    21  C   -0.004277  -0.037571   0.000000   0.000000  -0.002458  -0.000332
    22  C    0.002528  -0.000057   0.009134   0.303440  -0.000004   0.000000
    23  C   -0.000025  -0.002936   0.000000   0.000000   0.003674  -0.000458
    24  C   -0.000091   0.000514   0.000000   0.000000   0.001376  -0.000284
    25  C   -0.036736  -0.029011   0.000081  -0.000001  -0.000029   0.000024
    26  C    0.001944  -0.030096   0.000000   0.000000   0.000174  -0.000013
    27  C    0.000000   0.000013   0.000000   0.000000   0.000076   0.000260
    28  C   -0.000033   0.000000  -0.047574  -0.000002   0.000000   0.000000
    29  H    0.000000   0.000081   0.000000   0.000000   0.372886  -0.033853
    30  H    0.000000   0.000034   0.000000   0.000000  -0.011877   0.344224
    31  H    0.000000  -0.000047   0.000000   0.000000  -0.018389   0.382718
    32  H   -0.000006  -0.000215   0.000000   0.000000  -0.014167  -0.025934
    33  H    0.000016  -0.001312   0.000000  -0.000001  -0.014620  -0.015353
    34  H   -0.004446   0.000014  -0.003785  -0.007583   0.000000   0.000000
    35  H   -0.029421   0.005341  -0.000049   0.000048   0.000580  -0.000001
    36  H   -0.056658   0.000183   0.000102  -0.001763  -0.000045   0.000012
    37  H   -0.047572  -0.000033  -0.004800   0.000002   0.000000   0.000000
    38  H   -0.041125   0.000042  -0.002065   0.000003   0.000000   0.000000
    39  H    0.000000  -0.000034   0.000000   0.000000   0.000126   0.002411
    40  H   -0.000004   0.000003  -0.000152  -0.040547   0.000000   0.000000
    41  H    0.000067   0.000000   0.003017  -0.035899   0.000000   0.000000
    42  H   -0.000078  -0.000288   0.000000   0.000000   0.000002   0.000000
    43  H   -0.000010   0.000000  -0.000017   0.327291   0.000000   0.000000
    44  H    0.000033  -0.000006   0.000011   0.323413  -0.000003   0.000000
    45  H    0.000000   0.000000   0.000000   0.000000   0.000000   0.000000
    46  H    0.000001   0.000000  -0.000590   0.000000   0.000000   0.000000
    47  H    0.000002   0.000000  -0.000273   0.000000   0.000000   0.000000
    48  H    0.000000   0.000000   0.004218   0.000000   0.000000   0.000000
              13         14         15         16         17         18
     1  F    0.000000   0.000156   0.000003   0.000065   0.010225   0.000001
     2  O    0.000000  -0.000421   0.000000   0.000000   0.000000   0.001116
     3  O    0.000000   0.000000   0.010305  -0.000239  -0.007995   0.000000
     4  O    0.000000  -0.000119   0.000000   0.000000   0.000000  -0.005805
     5  O    0.000002  -0.000079   0.000000   0.000000   0.000000   0.006892
     6  N   -0.024356   0.157980  -0.000003  -0.000128  -0.000004   0.383749
     7  N   -0.000096  -0.002590  -0.051520   0.263270   0.247260   0.000061
     8  N    0.001100   0.478520   0.001140   0.007034  -0.001096  -0.008317
     9  N    0.000000  -0.000001  -0.060537   0.003154  -0.035328   0.000000
    10  N   -0.000001   0.000004  -0.066730   0.004971  -0.000630   0.000000
    11  C    0.149003  -0.021114  -0.000024  -0.000255  -0.000007  -0.054589
    12  C    0.129822   0.002056  -0.000003  -0.000083   0.000000   0.014510
    13  C    5.529785  -0.016135   0.000007   0.000864   0.000004  -0.007021
    14  C   -0.016135   5.824919   0.000208  -0.005831  -0.000172  -0.129443
    15  C    0.000007   0.000208   5.608090   0.245550  -0.114513   0.000000
    16  C    0.000864  -0.005831   0.245550   5.366060  -0.088854  -0.000041
    17  C    0.000004  -0.000172  -0.114513  -0.088854   5.507852   0.000000
    18  C   -0.007021  -0.129443   0.000000  -0.000041   0.000000   5.587414
    19  C   -0.000003  -0.000126   0.167504  -0.081264   0.100091   0.000000
    20  C    0.001247  -0.219554   0.003658  -0.043727  -0.039833  -0.001125
    21  C   -0.001583   0.026405   0.000046   0.000605  -0.000500   0.009870
    22  C    0.000004  -0.000017   0.272936  -0.041131   0.003539   0.000000
    23  C   -0.000796   0.008653   0.000000   0.000001   0.000000   0.248319
    24  C    0.000238  -0.008063   0.000000  -0.000005  -0.000011  -0.093338
    25  C   -0.000061  -0.054656  -0.000713   0.002235   0.004762  -0.000535
    26  C    0.000019  -0.044449  -0.000008   0.000103  -0.001427   0.002855
    27  C   -0.000043   0.005118   0.000000   0.000000   0.000000  -0.003271
    28  C    0.000000   0.000000  -0.001029   0.000028   0.001362   0.000000
    29  H   -0.016262   0.000266   0.000000   0.000071   0.000000  -0.000101
    30  H   -0.011096   0.000325   0.000000   0.000001   0.000000  -0.000097
    31  H   -0.019537  -0.000870   0.000000   0.000000   0.000000   0.001813
    32  H    0.390269   0.002731   0.000002   0.000087   0.000000   0.000562
    33  H    0.351570   0.000116  -0.000002   0.000111   0.000000   0.000164
    34  H    0.000001  -0.000010   0.379195  -0.044725   0.008501   0.000000
    35  H   -0.000072   0.002094  -0.015565   0.357867   0.003887   0.000014
    36  H    0.000305   0.000123  -0.061691   0.392290   0.003376   0.000003
    37  H    0.000000  -0.000021   0.000688   0.002851   0.381885   0.000000
    38  H    0.000000   0.000018  -0.004046   0.004258   0.382749   0.000000
    39  H   -0.000082  -0.002887   0.000000   0.000000   0.000000   0.315290
    40  H    0.000001   0.000000  -0.074633  -0.004650   0.000798   0.000000
    41  H    0.000000   0.000000  -0.042508   0.005563  -0.000430   0.000000
    42  H   -0.000001   0.001514   0.000000  -0.000002   0.000057  -0.000102
    43  H    0.000000   0.000000  -0.003438  -0.001374   0.000031   0.000000
    44  H    0.000025   0.000000  -0.004580   0.009359  -0.000047   0.000000
    45  H    0.000000  -0.000001   0.000000   0.000000   0.000000  -0.000446
    46  H    0.000000   0.000000   0.000124   0.000002   0.000183   0.000000
    47  H    0.000000   0.000000  -0.000051  -0.000001   0.000227   0.000000
    48  H    0.000000   0.000000   0.000003   0.000000  -0.000009   0.000000
              19         20         21         22         23         24
     1  F    0.000376  -0.051363  -0.001172   0.000000  -0.000007  -0.000122
     2  O    0.000000  -0.000091  -0.087601   0.000000  -0.070586   0.664326
     3  O   -0.070708   0.000153   0.000000  -0.000315   0.000000   0.000000
     4  O    0.000000   0.000000  -0.001242   0.000000  -0.029031   0.002371
     5  O    0.000000   0.000000  -0.000431   0.000000  -0.063655  -0.004209
     6  N    0.000000  -0.007796  -0.069499   0.000000  -0.060161  -0.006227
     7  N   -0.062935   0.195712  -0.004277   0.002528  -0.000025  -0.000091
     8  N    0.000008   0.494413  -0.037571  -0.000057  -0.002936   0.000514
     9  N    0.605879  -0.000949   0.000000   0.009134   0.000000   0.000000
    10  N    0.015565   0.000287   0.000000   0.303440   0.000000   0.000000
    11  C   -0.000001  -0.003230  -0.002458  -0.000004   0.003674   0.001376
    12  C    0.000000  -0.000068  -0.000332   0.000000  -0.000458  -0.000284
    13  C   -0.000003   0.001247  -0.001583   0.000004  -0.000796   0.000238
    14  C   -0.000126  -0.219554   0.026405  -0.000017   0.008653  -0.008063
    15  C    0.167504   0.003658   0.000046   0.272936   0.000000   0.000000
    16  C   -0.081264  -0.043727   0.000605  -0.041131   0.000001  -0.000005
    17  C    0.100091  -0.039833  -0.000500   0.003539   0.000000  -0.000011
    18  C    0.000000  -0.001125   0.009870   0.000000   0.248319  -0.093338
    19  C    5.441962  -0.010389  -0.000044  -0.041126   0.000000   0.000000
    20  C   -0.010389   5.483054  -0.074316  -0.000204  -0.001370  -0.004689
    21  C   -0.000044  -0.074316   5.772558   0.000000  -0.153077   0.139639
    22  C   -0.041126  -0.000204   0.000000   5.246532   0.000000   0.000000
    23  C    0.000000  -0.001370  -0.153077   0.000000   5.992509   0.021115
    24  C    0.000000  -0.004689   0.139639   0.000000   0.021115   5.263502
    25  C   -0.003537   0.279779  -0.022768   0.000048  -0.001914  -0.025131
    26  C   -0.000130  -0.094475   0.344173   0.000001  -0.028577  -0.075115
    27  C    0.000000  -0.000019  -0.032661   0.000000   0.065190  -0.050442
    28  C   -0.003672  -0.000001   0.000000  -0.000096   0.000000   0.000000
    29  H    0.000000   0.000767   0.000504   0.000001   0.000078  -0.000013
    30  H    0.000000   0.000001   0.000017   0.000000  -0.000071  -0.000002
    31  H    0.000000  -0.000005  -0.000072   0.000000   0.001124   0.000051
    32  H    0.000000   0.000122   0.000254   0.000000  -0.000034  -0.000014
    33  H    0.000000  -0.000285  -0.000051  -0.000003   0.000016   0.000000
    34  H   -0.045321  -0.000219   0.000001  -0.031682   0.000000   0.000000
    35  H    0.002883  -0.010742  -0.000062  -0.001015   0.000000  -0.000001
    36  H   -0.002951  -0.002168  -0.000046   0.006707   0.000000   0.000000
    37  H   -0.040625  -0.002405   0.000004   0.000178   0.000000   0.000000
    38  H   -0.033969  -0.001612  -0.000011  -0.000005   0.000000   0.000000
    39  H    0.000000  -0.000010  -0.000690   0.000000  -0.015135   0.004025
    40  H    0.007071   0.000007   0.000000   0.387427   0.000000   0.000000
    41  H   -0.006037   0.000022   0.000000   0.365400   0.000000   0.000000
    42  H    0.000001   0.001401  -0.020802   0.000000   0.002393   0.006143
    43  H    0.000867  -0.000002   0.000000  -0.035708   0.000000   0.000000
    44  H   -0.000200   0.000048   0.000000  -0.040008   0.000000   0.000000
    45  H    0.000000   0.000000   0.000069   0.000000   0.005237   0.001787
    46  H    0.001403   0.000000   0.000000  -0.000026   0.000000   0.000000
    47  H    0.001573   0.000000   0.000000   0.000078   0.000000   0.000000
    48  H   -0.000416   0.000000   0.000000   0.000001   0.000000   0.000000
              25         26         27         28         29         30
     1  F    0.263869  -0.047409   0.000000   0.000000   0.000000   0.000000
     2  O   -0.000405  -0.007387  -0.007671   0.000000   0.000000   0.000000
     3  O    0.000003   0.000000   0.000000   0.205228   0.000000   0.000000
     4  O   -0.000001   0.000032   0.248246   0.000000   0.000000   0.000000
     5  O    0.000000   0.000006   0.588871   0.000000   0.000000   0.000000
     6  N   -0.001427   0.012163   0.007271   0.000000  -0.029870   0.000817
     7  N   -0.036736   0.001944   0.000000  -0.000033   0.000000   0.000000
     8  N   -0.029011  -0.030096   0.000013   0.000000   0.000081   0.000034
     9  N    0.000081   0.000000   0.000000  -0.047574   0.000000   0.000000
    10  N   -0.000001   0.000000   0.000000  -0.000002   0.000000   0.000000
    11  C   -0.000029   0.000174   0.000076   0.000000   0.372886  -0.011877
    12  C    0.000024  -0.000013   0.000260   0.000000  -0.033853   0.344224
    13  C   -0.000061   0.000019  -0.000043   0.000000  -0.016262  -0.011096
    14  C   -0.054656  -0.044449   0.005118   0.000000   0.000266   0.000325
    15  C   -0.000713  -0.000008   0.000000  -0.001029   0.000000   0.000000
[...]
    17  C    0.005364  -0.001551   0.000000   0.001217   0.000000   0.000000
    18  C   -0.000486   0.003014  -0.001049   0.000000  -0.000500  -0.000183
    19  C   -0.002725  -0.000137   0.000000  -0.003446   0.000000   0.000000
    20  C    0.257965  -0.093788  -0.000014  -0.000001   0.000613   0.000001
    21  C   -0.026547   0.347697  -0.032560   0.000000   0.000453   0.000018
    22  C    0.000070   0.000001   0.000000  -0.000038   0.000000   0.000000
    23  C   -0.001912  -0.027392   0.062771   0.000000   0.000115  -0.000080
    24  C   -0.025124  -0.075746  -0.051118   0.000000  -0.000003  -0.000002
    25  C    5.017988   0.419408  -0.000069   0.000000  -0.000028   0.000000
    26  C    0.419408   5.613674  -0.000856   0.000000  -0.000029   0.000000
    27  C   -0.000069  -0.000856   5.008241   0.000000   0.000003   0.000003
    28  C    0.000000   0.000000   0.000000   5.225618   0.000000   0.000000
    29  H   -0.000028  -0.000029   0.000003   0.000000   0.438434  -0.000543
    30  H    0.000000   0.000000   0.000003   0.000000  -0.000543   0.445364
    31  H    0.000000   0.000003   0.000022   0.000000   0.000837  -0.011512
    32  H   -0.000009   0.000007   0.000001   0.000000   0.001146   0.001067
    33  H   -0.000011   0.000004   0.000000   0.000000  -0.002653  -0.004563
    34  H    0.000066   0.000000   0.000000   0.000004   0.000000   0.000000
    35  H   -0.000618  -0.000001   0.000000   0.000000  -0.000059   0.000000
    36  H    0.000000   0.000022   0.000000  -0.000001   0.000008   0.000000
    37  H    0.004454   0.000357   0.000000   0.000157   0.000000   0.000000
    38  H   -0.000799  -0.000016   0.000000   0.000026   0.000000   0.000000
    39  H    0.000000   0.000085  -0.008519   0.000000   0.000386   0.000037
    40  H    0.000005   0.000000   0.000000   0.000000   0.000000   0.000000
    41  H   -0.000001   0.000000   0.000000   0.000039   0.000000   0.000000
    42  H   -0.031043   0.312356  -0.000012   0.000000   0.000000   0.000000
    43  H    0.000000   0.000000   0.000000   0.000000   0.000000   0.000000
    44  H    0.000000   0.000000   0.000000   0.000000   0.000000   0.000000
    45  H    0.000000  -0.000001  -0.029313   0.000000   0.000000   0.000000
    46  H    0.000000   0.000000   0.000000   0.356762   0.000000   0.000000
    47  H    0.000000   0.000000   0.000000   0.355362   0.000000   0.000000
    48  H    0.000000   0.000000   0.000000   0.360755   0.000000   0.000000
              31         32         33         34         35         36
     1  F    0.000000   0.000000   0.000000   0.000000   0.000000  -0.000002
     2  O    0.000000   0.000000   0.000000   0.000000   0.000000   0.000000
     3  O    0.000000   0.000000   0.000000   0.000111   0.000001  -0.000001
     4  O    0.000000   0.000000   0.000000   0.000000   0.000000   0.000000
     5  O    0.000023   0.000000   0.000000   0.000000   0.000000   0.000000
     6  N   -0.007279  -0.004201   0.000387   0.000000   0.000016   0.000027
     7  N    0.000000  -0.000011   0.000026  -0.005254  -0.031810  -0.055204
     8  N   -0.000049  -0.000356  -0.001558   0.000011   0.002925   0.000358
     9  N    0.000000   0.000000   0.000000  -0.004605  -0.000051   0.000065
    10  N    0.000000   0.000001   0.000028  -0.005752   0.000290  -0.001318
    11  C   -0.018108  -0.014136  -0.013851   0.000000   0.000493  -0.000027
    12  C    0.382239  -0.026428  -0.014970   0.000000   0.000005   0.000029
    13  C   -0.019395   0.390281   0.350385   0.000001  -0.000083   0.000677
    14  C   -0.000841   0.002820  -0.000039  -0.000006   0.002011   0.000254
    15  C    0.000000   0.000005  -0.000007   0.375521  -0.019830  -0.057227
    16  C    0.000000   0.000166  -0.000013  -0.042978   0.368393   0.395842
    17  C    0.000000   0.000000   0.000000   0.008980   0.003955   0.003919
    18  C    0.002156   0.000466   0.000227   0.000000   0.000016   0.000006
    19  C    0.000000   0.000000   0.000000  -0.046778   0.002178  -0.002773
    20  C   -0.000004   0.000134  -0.000343  -0.000291  -0.013339  -0.006305
    21  C   -0.000083   0.000298  -0.000067   0.000000  -0.000108  -0.000084
    22  C    0.000000   0.000000  -0.000006  -0.038009   0.000026   0.003085
    23  C    0.000993  -0.000044   0.000018   0.000000   0.000000   0.000000
    24  C    0.000048  -0.000012   0.000000   0.000000  -0.000001   0.000000
    25  C    0.000000  -0.000009  -0.000011   0.000066  -0.000618   0.000000
    26  C    0.000003   0.000007   0.000004   0.000000  -0.000001   0.000022
    27  C    0.000022   0.000001   0.000000   0.000000   0.000000   0.000000
    28  C    0.000000   0.000000   0.000000   0.000004   0.000000  -0.000001
    29  H    0.000837   0.001146  -0.002653   0.000000  -0.000059   0.000008
    30  H   -0.011512   0.001067  -0.004563   0.000000   0.000000   0.000000
    31  H    0.433072  -0.003401   0.000982   0.000000   0.000000   0.000000
    32  H   -0.003401   0.425774  -0.008195   0.000000   0.000006  -0.000030
    33  H    0.000982  -0.008195   0.433893   0.000000   0.000006   0.000004
    34  H    0.000000   0.000000   0.000000   0.506702  -0.001511   0.002695
    35  H    0.000000   0.000006   0.000006  -0.001511   0.450246  -0.017624
    36  H    0.000000  -0.000030   0.000004   0.002695  -0.017624   0.502138
    37  H    0.000000   0.000000   0.000000  -0.000001  -0.000104   0.000543
    38  H    0.000000   0.000000   0.000000   0.000205   0.000010  -0.000119
    39  H   -0.000221   0.000085  -0.000010   0.000000   0.000000   0.000000
    40  H    0.000000   0.000000   0.000000   0.004149   0.000291   0.003470
    41  H    0.000000   0.000000   0.000000  -0.007057  -0.000110   0.000181
    42  H    0.000000   0.000000   0.000000   0.000000   0.000000   0.000000
    43  H    0.000000   0.000000   0.000000   0.003645   0.000275   0.000035
    44  H    0.000000   0.000000   0.000000   0.000047  -0.000012  -0.000007
    45  H    0.000000   0.000000   0.000000   0.000000   0.000000   0.000000
    46  H    0.000000   0.000000   0.000000  -0.000006   0.000000   0.000000
    47  H    0.000000   0.000000   0.000000   0.000002   0.000000   0.000000
    48  H    0.000000   0.000000   0.000000   0.000000   0.000000   0.000000
              37         38         39         40         41         42
     1  F   -0.002723  -0.001962   0.000000   0.000000   0.000000   0.000793
     2  O    0.000000   0.000000  -0.000053   0.000000   0.000000   0.009606
     3  O    0.001521  -0.000487   0.000000  -0.000049   0.000015   0.000000
     4  O    0.000000   0.000000   0.000326   0.000000   0.000000   0.000000
     5  O    0.000000   0.000000   0.011723   0.000000   0.000000   0.000000
     6  N    0.000000   0.000000  -0.036345   0.000000   0.000000  -0.000082
     7  N   -0.049766  -0.040942   0.000000  -0.000470   0.000127  -0.000076
     8  N   -0.000053   0.000020  -0.000034   0.000003   0.000000  -0.000283
     9  N   -0.004771  -0.003191   0.000000  -0.000034   0.004307   0.000000
    10  N   -0.000001   0.000001   0.000000  -0.041799  -0.069018   0.000000
    11  C    0.000000   0.000000  -0.000449   0.000000   0.000000   0.000002
    12  C    0.000000   0.000000   0.002037   0.000000   0.000000   0.000000
    13  C    0.000000   0.000000   0.000195   0.000002   0.000000  -0.000001
    14  C   -0.000057   0.000019  -0.002876   0.000000   0.000000   0.001522
    15  C    0.000852  -0.003487   0.000000  -0.043352  -0.046420   0.000000
    16  C    0.003959   0.003464   0.000000  -0.006196   0.006089  -0.000004
    17  C    0.383836   0.382033   0.000000   0.001399  -0.000414   0.000060
    18  C    0.000000   0.000000   0.317036   0.000000   0.000000  -0.000086
    19  C   -0.041326  -0.035169   0.000000   0.000616  -0.004505   0.000001
    20  C   -0.004996  -0.001045  -0.000009  -0.000066   0.000025   0.001177
    21  C    0.000017  -0.000006  -0.000548   0.000000   0.000000  -0.019519
    22  C    0.000069  -0.000027   0.000000   0.377504   0.376454   0.000000
    23  C    0.000000   0.000000  -0.014830   0.000000   0.000000   0.002163
    24  C    0.000000   0.000000   0.003793   0.000000   0.000000   0.005855
    25  C    0.004454  -0.000799   0.000000   0.000005  -0.000001  -0.031043
    26  C    0.000357  -0.000016   0.000085   0.000000   0.000000   0.312356
    27  C    0.000000   0.000000  -0.008519   0.000000   0.000000  -0.000012
    28  C    0.000157   0.000026   0.000000   0.000000   0.000039   0.000000
    29  H    0.000000   0.000000   0.000386   0.000000   0.000000   0.000000
    30  H    0.000000   0.000000   0.000037   0.000000   0.000000   0.000000
    31  H    0.000000   0.000000  -0.000221   0.000000   0.000000   0.000000
    32  H    0.000000   0.000000   0.000085   0.000000   0.000000   0.000000
    33  H    0.000000   0.000000  -0.000010   0.000000   0.000000   0.000000
    34  H   -0.000001   0.000205   0.000000   0.004149  -0.007057   0.000000
    35  H   -0.000104   0.000010   0.000000   0.000291  -0.000110   0.000000
    36  H    0.000543  -0.000119   0.000000   0.003470   0.000181   0.000000
    37  H    0.464992  -0.020475   0.000000   0.000021   0.000005   0.000000
    38  H   -0.020475   0.447905   0.000000  -0.000002  -0.000005   0.000000
    39  H    0.000000   0.000000   0.435524   0.000000   0.000000   0.000000
    40  H    0.000021  -0.000002   0.000000   0.540576  -0.036342   0.000000
    41  H    0.000005  -0.000005   0.000000  -0.036342   0.552910   0.000000
    42  H    0.000000   0.000000   0.000000   0.000000   0.000000   0.417945
    43  H    0.000000   0.000000   0.000000   0.004334  -0.002264   0.000000
    44  H    0.000000   0.000000   0.000000  -0.005196   0.001335   0.000000
    45  H    0.000000   0.000000   0.000001   0.000000   0.000000   0.000000
    46  H    0.000010  -0.000022   0.000000   0.000000   0.000007   0.000000
    47  H   -0.000030   0.000005   0.000000   0.000003  -0.000010   0.000000
    48  H    0.000011   0.000005   0.000000   0.000000   0.000000   0.000000
              43         44         45         46         47         48
     1  F    0.000000   0.000000   0.000000   0.000000   0.000000   0.000000
     2  O    0.000000   0.000000   0.000302   0.000000   0.000000   0.000000
     3  O    0.000000   0.000000   0.000000  -0.040970  -0.041134  -0.030226
     4  O    0.000000   0.000000   0.249477   0.000000   0.000000   0.000000
     5  O    0.000000   0.000000   0.003086   0.000000   0.000000   0.000000
     6  N    0.000000   0.000000   0.000001   0.000000   0.000000   0.000000
     7  N   -0.000005  -0.000001   0.000000   0.000001   0.000002   0.000000
     8  N    0.000000   0.000000   0.000000   0.000000   0.000000   0.000000
     9  N   -0.000012   0.000008   0.000000   0.000362   0.000818   0.004368
    10  N    0.334343   0.329920   0.000000   0.000000   0.000000   0.000000
    11  C    0.000000   0.000000   0.000000   0.000000   0.000000   0.000000
    12  C    0.000000   0.000000   0.000000   0.000000   0.000000   0.000000
    13  C    0.000000   0.000001   0.000000   0.000000   0.000000   0.000000
    14  C    0.000000   0.000000   0.000000   0.000000   0.000000   0.000000
    15  C   -0.003084   0.004807   0.000000   0.000178  -0.000036  -0.000002
    16  C   -0.002062   0.000287   0.000000   0.000002   0.000000   0.000000
    17  C    0.000019   0.000013   0.000000   0.000144   0.000220   0.000036
    18  C    0.000000   0.000000  -0.000325   0.000000   0.000000   0.000000
    19  C    0.000694  -0.000362   0.000000   0.001621   0.001697  -0.000508
    20  C   -0.000001   0.000002   0.000000   0.000000   0.000000   0.000000
    21  C    0.000000   0.000000   0.000051   0.000000   0.000000   0.000000
    22  C   -0.039221  -0.026045   0.000000  -0.000027   0.000092   0.000001
    23  C    0.000000   0.000000   0.005259   0.000000   0.000000   0.000000
    24  C    0.000000   0.000000   0.001387   0.000000   0.000000   0.000000
    25  C    0.000000   0.000000   0.000000   0.000000   0.000000   0.000000
    26  C    0.000000   0.000000  -0.000001   0.000000   0.000000   0.000000
    27  C    0.000000   0.000000  -0.029313   0.000000   0.000000   0.000000
    28  C    0.000000   0.000000   0.000000   0.356762   0.355362   0.360755
    29  H    0.000000   0.000000   0.000000   0.000000   0.000000   0.000000
    30  H    0.000000   0.000000   0.000000   0.000000   0.000000   0.000000
    31  H    0.000000   0.000000   0.000000   0.000000   0.000000   0.000000
    32  H    0.000000   0.000000   0.000000   0.000000   0.000000   0.000000
    33  H    0.000000   0.000000   0.000000   0.000000   0.000000   0.000000
    34  H    0.003645   0.000047   0.000000  -0.000006   0.000002   0.000000
    35  H    0.000275  -0.000012   0.000000   0.000000   0.000000   0.000000
    36  H    0.000035  -0.000007   0.000000   0.000000   0.000000   0.000000
    37  H    0.000000   0.000000   0.000000   0.000010  -0.000030   0.000011
    38  H    0.000000   0.000000   0.000000  -0.000022   0.000005   0.000005
    39  H    0.000000   0.000000   0.000001   0.000000   0.000000   0.000000
    40  H    0.004334  -0.005196   0.000000   0.000000   0.000003   0.000000
    41  H   -0.002264   0.001335   0.000000   0.000007  -0.000010   0.000000
    42  H    0.000000   0.000000   0.000000   0.000000   0.000000   0.000000
    43  H    0.447013  -0.032195   0.000000   0.000000   0.000000   0.000000
    44  H   -0.032195   0.419354   0.000000   0.000000   0.000000   0.000000
    45  H    0.000000   0.000000   0.363086   0.000000   0.000000   0.000000
    46  H    0.000000   0.000000   0.000000   0.513594  -0.033128  -0.023511
    47  H    0.000000   0.000000   0.000000  -0.033128   0.516695  -0.023811
    48  H    0.000000   0.000000   0.000000  -0.023511  -0.023811   0.491643
 Mulliken charges:
               1
     1  F   -0.255913
     2  O   -0.291500
     3  O   -0.323787
     4  O   -0.453268
     5  O   -0.353928
     6  N   -0.200858
     7  N   -0.235053
     8  N   -0.084755
     9  N    0.005142
    10  N   -0.670196
    11  C   -0.071287
    12  C   -0.520328
    13  C   -0.454486
    14  C   -0.015320
    15  C   -0.167633
    16  C   -0.313848
    17  C   -0.382199
    18  C   -0.260903
    19  C    0.030291
    20  C    0.108020
    21  C    0.220328
    22  C   -0.380351
    23  C    0.082490
    24  C    0.156267
    25  C    0.241589
    26  C   -0.373343
    27  C    0.201617
    28  C   -0.448336
    29  H    0.267810
    30  H    0.248102
    31  H    0.240518
    32  H    0.234565
    33  H    0.260326
    34  H    0.250110
    35  H    0.254119
    36  H    0.227366
    37  H    0.263500
    38  H    0.274060
    39  H    0.292665
    40  H    0.201133
    41  H    0.224651
    42  H    0.299625
    43  H    0.288484
    44  H    0.308044
    45  H    0.406991
    46  H    0.224984
    47  H    0.223254
    48  H    0.221240
 Sum of Mulliken charges =   0.00000
 Mulliken charges with hydrogens summed into heavy atoms:
               1
     1  F   -0.255913
     2  O   -0.291500
     3  O   -0.323787
     4  O   -0.046277
     5  O   -0.353928
     6  N   -0.200858
     7  N   -0.235053
     8  N   -0.084755
     9  N    0.005142
    10  N   -0.073667
    11  C    0.196523
    12  C   -0.031708
    13  C    0.040406
    14  C   -0.015320
    15  C    0.082477
    16  C    0.167637
    17  C    0.155361
    18  C    0.031762
    19  C    0.030291
    20  C    0.108020
    21  C    0.220328
    22  C    0.045434
    23  C    0.082490
    24  C    0.156267
    25  C    0.241589
    26  C   -0.073718
    27  C    0.201617
    28  C    0.221141
 Electronic spatial extent (au):  <R**2>=          14667.6847
 Charge=              0.0000 electrons
 Dipole moment (field-independent basis, Debye):
    X=             -7.4173    Y=              6.2032    Z=             -0.3158  Tot=              9.6745
 Quadrupole moment (field-independent basis, Debye-Ang):
   XX=           -161.5688   YY=           -158.2943   ZZ=           -156.0453
   XY=              5.3349   XZ=             -1.7977   YZ=             -2.2897
 Traceless Quadrupole moment (field-independent basis, Debye-Ang):
   XX=             -2.9327   YY=              0.3418   ZZ=              2.5909
   XY=              5.3349   XZ=             -1.7977   YZ=             -2.2897
 Octapole moment (field-independent basis, Debye-Ang**2):
  XXX=           -259.7281  YYY=             93.8422  ZZZ=             -1.6421  XYY=           -102.7777
  XXY=            -25.6748  XXZ=             13.2603  XZZ=            -19.9421  YZZ=              2.3698
  YYZ=             -7.1319  XYZ=             14.6411
 Hexadecapole moment (field-independent basis, Debye-Ang**3):
 XXXX=         -13417.7182 YYYY=          -3490.2437 ZZZZ=           -297.8220 XXXY=           -153.1109
 XXXZ=           -181.4087 YYYX=             51.5009 YYYZ=            -49.2289 ZZZX=              5.5640
 ZZZY=            -20.9620 XXYY=          -2899.6106 XXZZ=          -2411.3386 YYZZ=           -639.8743
 XXYZ=            -67.5538 YYXZ=            -25.2444 ZZXY=            -24.5937
 N-N= 2.597138509011D+03 E-N=-8.399156499828D+03  KE= 1.364716260909D+03
 1\1\GINC-NODE045\FOpt\RM06\LANL2DZ\C18H20F1N5O4\SUPERCOMPUTO1\21-Jul-2
 020\0\\#opt M06/lanl2dz integral=ultrafine geom=connectivity\\Title Ca
 rd Required\\0,1\F,-1.1084629401,-3.0247876047,-0.145904845\O,3.939303
 9507,-2.7571962528,0.1634956022\O,-5.6543740893,-1.8320533714,0.382939
 4043\O,6.4574655212,-1.6032767193,0.0092820351\O,6.575259679,0.6658741
 953,0.0492537816\N,2.5023371712,1.1344410263,-0.1136605017\N,-1.935078
 6758,-0.261325118,-0.2792008623\N,0.2939058235,0.3539754367,-0.1930774
 245\N,-5.5047814243,-0.4571200985,0.0091420628\N,-3.9850234061,3.60753
 19977,-0.3386447694\C,1.9916193227,2.489921004,-0.2452200138\C,2.65238
 31617,3.6080668688,0.538362111\C,1.2657757981,3.1150008249,0.922520727
 7\C,1.6010768274,0.0547407071,-0.1093928818\C,-3.7967541042,1.18478153
 06,-0.6240329073\C,-2.2954269566,1.1716955425,-0.306735892\C,-3.098806
 6546,-1.1404838211,-0.0875820021\C,3.8399438226,0.8816639522,-0.082337
 044\C,-4.2586815204,-0.1912400855,-0.2097503849\C,-0.6280193569,-0.635
 7306468,-0.1955188064\C,2.1095555924,-1.2544827679,-0.0220781511\C,-4.
 5483904416,2.3229020016,0.071187914\C,4.4060477149,-0.37359098,0.00049
 9958\C,3.5525698087,-1.5691371904,0.0583658538\C,-0.1785727319,-1.9906
 983496,-0.1169561375\C,1.1557955305,-2.2950196118,-0.0281284846\C,5.87
 91281209,-0.3687312284,0.025714904\C,-7.0536499421,-2.0980735244,0.640
 8189248\H,1.6104327044,2.7075684378,-1.2376105673\H,2.7537708504,4.568
 6914575,0.0472546814\H,3.4705077319,3.3567009362,1.206435252\H,1.18203
 72889,2.5141206567,1.8221883272\H,0.3982697936,3.7259099551,0.70167404
 85\H,-3.9349664934,1.2825126233,-1.7124644507\H,-1.6879192496,1.703029
 1011,-1.0420843542\H,-2.0921734627,1.6435521137,0.6672826529\H,-3.1004
 911845,-1.6365011093,0.8928940309\H,-3.1573144201,-1.937195021,-0.8378
 631787\H,4.4973409829,1.7459095689,-0.1263266108\H,-4.4154018435,2.213
 9111706,1.1558867125\H,-5.6265085451,2.2114351697,-0.13111943\H,1.5020
 233566,-3.3231338502,0.0305644839\H,-4.0874385278,3.8351521932,-1.3219
 343527\H,-4.1699756608,4.3924880249,0.2736088212\H,7.4354453539,-1.509
 8402194,0.0289164203\H,-7.6522450657,-1.9145783377,-0.2575304321\H,-7.
 4210106664,-1.4715387352,1.4604881824\H,-7.1016845446,-3.1524228528,0.
 9190615928\\Version=ES64L-G09RevD.01\State=1-A\HF=-1371.3314805\RMSD=3
 .938e-09\RMSF=3.031e-06\Dipole=-2.9099281,2.4497445,-0.1363107\Quadrup
 ole=-2.1482187,0.2210337,1.927185,3.975256,-1.3601729,-1.6850028\PG=C0
 1 [X(C18H20F1N5O4)]\\@


    WHAT WE HAVE LEARNED
 IS LIKE A HANDFUL OF EARTH;
  WHAT WE HAVE YET TO LEARN
   IS LIKE THE WHOLE WORLD.

         -- AVVAYIAR
 Job cpu time:       0 days 20 hours  6 minutes 15.8 seconds.
 File lengths (MBytes):  RWF=     56 Int=      0 D2E=      0 Chk=      8 Scr=      1
 Normal termination of Gaussian 09 at Tue Jul 21 18:03:58 2020.
