 Entering Gaussian System, Link 0=g09
 Input=rosoxacino.gjf
 Output=rosoxacino.log
 Initial command:
 /usr/local/cluster_programs/g09/l1.exe "/tmp/scratch/63933.prometeo/Gau-12990.inp" -scrdir="/tmp/scratch/63933.prometeo/"
 Entering Link 1 = /usr/local/cluster_programs/g09/l1.exe PID=     12991.
  
 Copyright (c) 1988,1990,1992,1993,1995,1998,2003,2009,2013,
            Gaussian, Inc.  All Rights Reserved.
  
 This is part of the Gaussian(R) 09 program.  It is based on
 the Gaussian(R) 03 system (copyright 2003, Gaussian, Inc.),
 the Gaussian(R) 98 system (copyright 1998, Gaussian, Inc.),
 the Gaussian(R) 94 system (copyright 1995, Gaussian, Inc.),
 the Gaussian 92(TM) system (copyright 1992, Gaussian, Inc.),
 the Gaussian 90(TM) system (copyright 1990, Gaussian, Inc.),
 the Gaussian 88(TM) system (copyright 1988, Gaussian, Inc.),
 the Gaussian 86(TM) system (copyright 1986, Carnegie Mellon
 University), and the Gaussian 82(TM) system (copyright 1983,
 Carnegie Mellon University). Gaussian is a federally registered
 trademark of Gaussian, Inc.
  
 This software contains proprietary and confidential information,
 including trade secrets, belonging to Gaussian, Inc.
  
 This software is provided under written license and may be
 used, copied, transmitted, or stored only in accord with that
 written license.
  
 The following legend is applicable only to US Government
 contracts under FAR:
  
                    RESTRICTED RIGHTS LEGEND
  
 Use, reproduction and disclosure by the US Government is
 subject to restrictions as set forth in subparagraphs (a)
 and (c) of the Commercial Computer Software - Restricted
 Rights clause in FAR 52.227-19.
  
 Gaussian, Inc.
 340 Quinnipiac St., Bldg. 40, Wallingford CT 06492
  
  
 ---------------------------------------------------------------
 Warning -- This program may not be used in any manner that
 competes with the business of Gaussian, Inc. or will provide
 assistance to any competitor of Gaussian, Inc.  The licensee
 of this program is prohibited from giving any competitor of
 Gaussian, Inc. access to this program.  By using this program,
 the user acknowledges that Gaussian, Inc. is engaged in the
 business of creating and licensing software in the field of
 computational chemistry and represents and warrants to the
 licensee that it is not a competitor of Gaussian, Inc. and that
 it will not use this program in any manner prohibited above.
 ---------------------------------------------------------------
  

 Cite this work as:
 Gaussian 09, Revision D.01,
 M. J. Frisch, G. W. Trucks, H. B. Schlegel, G. E. Scuseria, 
 M. A. Robb, J. R. Cheeseman, G. Scalmani, V. Barone, B. Mennucci, 
 G. A. Petersson, H. Nakatsuji, M. Caricato, X. Li, H. P. Hratchian, 
 A. F. Izmaylov, J. Bloino, G. Zheng, J. L. Sonnenberg, M. Hada, 
 M. Ehara, K. Toyota, R. Fukuda, J. Hasegawa, M. Ishida, T. Nakajima, 
 Y. Honda, O. Kitao, H. Nakai, T. Vreven, J. A. Montgomery, Jr., 
 J. E. Peralta, F. Ogliaro, M. Bearpark, J. J. Heyd, E. Brothers, 
 K. N. Kudin, V. N. Staroverov, T. Keith, R. Kobayashi, J. Normand, 
 K. Raghavachari, A. Rendell, J. C. Burant, S. S. Iyengar, J. Tomasi, 
 M. Cossi, N. Rega, J. M. Millam, M. Klene, J. E. Knox, J. B. Cross, 
 V. Bakken, C. Adamo, J. Jaramillo, R. Gomperts, R. E. Stratmann, 
 O. Yazyev, A. J. Austin, R. Cammi, C. Pomelli, J. W. Ochterski, 
 R. L. Martin, K. Morokuma, V. G. Zakrzewski, G. A. Voth, 
 P. Salvador, J. J. Dannenberg, S. Dapprich, A. D. Daniels, 
 O. Farkas, J. B. Foresman, J. V. Ortiz, J. Cioslowski, 
 and D. J. Fox, Gaussian, Inc., Wallingford CT, 2013.
 
 ******************************************
 Gaussian 09:  ES64L-G09RevD.01 24-Apr-2013
                 6-Jul-2020 
 ******************************************
 %nprocshared=20
 Will use up to   20 processors via shared memory.
 -----------------------------------
 # opt b3lyp/3-21g geom=connectivity
 -----------------------------------
 1/14=-1,18=20,19=15,26=3,38=1,57=2/1,3;
 2/9=110,12=2,17=6,18=5,40=1/2;
 3/5=5,11=2,16=1,25=1,30=1,71=1,74=-5/1,2,3;
 4//1;
 5/5=2,38=5/2;
 6/7=2,8=2,9=2,10=2,28=1/1;
 7//1,2,3,16;
 1/14=-1,18=20,19=15,26=3/3(2);
 2/9=110/2;
 99//99;
 2/9=110/2;
 3/5=5,11=2,16=1,25=1,30=1,71=1,74=-5/1,2,3;
 4/5=5,16=3,69=1/1;
 5/5=2,38=5/2;
 7//1,2,3,16;
 1/14=-1,18=20,19=15,26=3/3(-5);
 2/9=110/2;
 6/7=2,8=2,9=2,10=2,19=2,28=1/1;
 99/9=1/99;
 -------------------
 Title Card Required
 -------------------
 Symbolic Z-matrix:
 Charge =  0 Multiplicity = 1
 O(PDBName=O1,ResName=MOL,ResNum=1) 0     6.4       5.888     7.848    L 
 O(PDBName=O2,ResName=MOL,ResNum=1) 0     3.92      6.965     7.028    L 
 O(PDBName=O3,ResName=MOL,ResNum=1) 0     3.769     9.194     7.421    L 
 N(PDBName=N4,ResName=MOL,ResNum=1) 0     7.831     9.685     7.064    L 
 N(PDBName=N5,ResName=MOL,ResNum=1) 0     15.302    8.482     7.329    L 
 C(PDBName=C6,ResName=MOL,ResNum=1) 0     8.748     8.646     7.285    L 
 C(PDBName=C7,ResName=MOL,ResNum=1) 0     8.251     7.347     7.538    L 
 C(PDBName=C8,ResName=MOL,ResNum=1) 0     8.257     11.075    6.841    L 
 C(PDBName=C9,ResName=MOL,ResNum=1) 0     10.132    8.869     7.243    L 
 C(PDBName=C10,ResName=MOL,ResNum=1) 0     11.036    7.825     7.448    L 
 C(PDBName=C11,ResName=MOL,ResNum=1) 0     6.502     9.425     7.108    L 
 C(PDBName=C12,ResName=MOL,ResNum=1) 0     6.798     7.037     7.584    L 
 C(PDBName=C13,ResName=MOL,ResNum=1) 0     5.941     8.192     7.324    L 
 C(PDBName=C14,ResName=MOL,ResNum=1) 0     9.17      6.312     7.749    L 
 C(PDBName=C15,ResName=MOL,ResNum=1) 0     10.531    6.535     7.709    L 
 C(PDBName=C16,ResName=MOL,ResNum=1) 0     12.494    8.06      7.4      L 
 C(PDBName=C17,ResName=MOL,ResNum=1) 0     8.519     11.833    8.137    L 
 C(PDBName=C18,ResName=MOL,ResNum=1) 0     4.463     8.182     7.281    L 
 C(PDBName=C19,ResName=MOL,ResNum=1) 0     13.38     7.063     6.971    L 
 C(PDBName=C20,ResName=MOL,ResNum=1) 0     13.067    9.278     7.792    L 
 C(PDBName=C21,ResName=MOL,ResNum=1) 0     14.749    7.312     6.954    L 
 C(PDBName=C22,ResName=MOL,ResNum=1) 0     14.449    9.439     7.737    L 
 H(PDBName=H23,ResName=MOL,ResNum=1) 0     9.137     11.075    6.184    L 
 H(PDBName=H24,ResName=MOL,ResNum=1) 0     7.448     11.558    6.275    L 
 H(PDBName=H25,ResName=MOL,ResNum=1) 0     10.517    9.863     7.025    L 
 H(PDBName=H26,ResName=MOL,ResNum=1) 0     5.844     10.28     6.94     L 
 H(PDBName=H27,ResName=MOL,ResNum=1) 0     8.757     5.324     7.958    L 
 H(PDBName=H28,ResName=MOL,ResNum=1) 0     11.223    5.719     7.911    L 
 H(PDBName=H29,ResName=MOL,ResNum=1) 0     7.604     11.895    8.741    L 
 H(PDBName=H30,ResName=MOL,ResNum=1) 0     9.294     11.347    8.742    L 
 H(PDBName=H31,ResName=MOL,ResNum=1) 0     8.85      12.854    7.908    L 
 H(PDBName=H32,ResName=MOL,ResNum=1) 0     13.009    6.096     6.632    L 
 H(PDBName=H33,ResName=MOL,ResNum=1) 0     12.446    10.09     8.17     L 
 H(PDBName=H34,ResName=MOL,ResNum=1) 0     15.446    6.54      6.624    L 
 H(PDBName=H35,ResName=MOL,ResNum=1) 0     14.905    10.382    8.047    L 
 H(PDBName=H36,ResName=MOL,ResNum=1) 0     2.948     7.12      7.004    L 
 
 Center=      9.47602778      8.68852778      7.41533333
 Residue   1 PDB Number     1_0 MOL charge    0.00000000 layers R        AvRTP=      0.00000000      0.00000000      0.00000000

 GradGradGradGradGradGradGradGradGradGradGradGradGradGradGradGradGradGrad
 Berny optimization.
 Initialization pass.
                           ----------------------------
                           !    Initial Parameters    !
                           ! (Angstroms and Degrees)  !
 --------------------------                            --------------------------
 ! Name  Definition              Value          Derivative Info.                !
 --------------------------------------------------------------------------------
 ! R1    R(1,12)                 1.2443         estimate D2E/DX2                !
 ! R2    R(2,18)                 1.3564         estimate D2E/DX2                !
 ! R3    R(2,36)                 0.9846         estimate D2E/DX2                !
 ! R4    R(3,18)                 1.2351         estimate D2E/DX2                !
 ! R5    R(4,6)                  1.4033         estimate D2E/DX2                !
 ! R6    R(4,8)                  1.4708         estimate D2E/DX2                !
 ! R7    R(4,11)                 1.3549         estimate D2E/DX2                !
 ! R8    R(5,21)                 1.3473         estimate D2E/DX2                !
 ! R9    R(5,22)                 1.3453         estimate D2E/DX2                !
 ! R10   R(6,7)                  1.4137         estimate D2E/DX2                !
 ! R11   R(6,9)                  1.4025         estimate D2E/DX2                !
 ! R12   R(7,12)                 1.4864         estimate D2E/DX2                !
 ! R13   R(7,14)                 1.4001         estimate D2E/DX2                !
 ! R14   R(8,17)                 1.5241         estimate D2E/DX2                !
 ! R15   R(8,23)                 1.0982         estimate D2E/DX2                !
 ! R16   R(8,24)                 1.0991         estimate D2E/DX2                !
 ! R17   R(9,10)                 1.3961         estimate D2E/DX2                !
 ! R18   R(9,25)                 1.088          estimate D2E/DX2                !
 ! R19   R(10,15)                1.4097         estimate D2E/DX2                !
 ! R20   R(10,16)                1.4776         estimate D2E/DX2                !
 ! R21   R(11,13)                1.3717         estimate D2E/DX2                !
 ! R22   R(11,26)                1.0919         estimate D2E/DX2                !
 ! R23   R(12,13)                1.4615         estimate D2E/DX2                !
 ! R24   R(13,18)                1.4787         estimate D2E/DX2                !
 ! R25   R(14,15)                1.3797         estimate D2E/DX2                !
 ! R26   R(14,27)                1.0911         estimate D2E/DX2                !
 ! R27   R(15,28)                1.0888         estimate D2E/DX2                !
 ! R28   R(16,19)                1.4011         estimate D2E/DX2                !
 ! R29   R(16,20)                1.402          estimate D2E/DX2                !
 ! R30   R(17,29)                1.0981         estimate D2E/DX2                !
 ! R31   R(17,30)                1.0967         estimate D2E/DX2                !
 ! R32   R(17,31)                1.0975         estimate D2E/DX2                !
 ! R33   R(19,21)                1.3916         estimate D2E/DX2                !
 ! R34   R(19,32)                1.0898         estimate D2E/DX2                !
 ! R35   R(20,22)                1.3924         estimate D2E/DX2                !
 ! R36   R(20,33)                1.0899         estimate D2E/DX2                !
 ! R37   R(21,34)                1.0912         estimate D2E/DX2                !
 ! R38   R(22,35)                1.0924         estimate D2E/DX2                !
 ! A1    A(18,2,36)            104.9811         estimate D2E/DX2                !
 ! A2    A(6,4,8)              122.2983         estimate D2E/DX2                !
 ! A3    A(6,4,11)             119.5888         estimate D2E/DX2                !
 ! A4    A(8,4,11)             118.0584         estimate D2E/DX2                !
 ! A5    A(21,5,22)            116.2245         estimate D2E/DX2                !
 ! A6    A(4,6,7)              118.6067         estimate D2E/DX2                !
 ! A7    A(4,6,9)              121.4938         estimate D2E/DX2                !
 ! A8    A(7,6,9)              119.8946         estimate D2E/DX2                !
 ! A9    A(6,7,12)             122.7413         estimate D2E/DX2                !
 ! A10   A(6,7,14)             118.3906         estimate D2E/DX2                !
 ! A11   A(12,7,14)            118.8677         estimate D2E/DX2                !
 ! A12   A(4,8,17)             113.0095         estimate D2E/DX2                !
 ! A13   A(4,8,23)             108.8318         estimate D2E/DX2                !
 ! A14   A(4,8,24)             106.271          estimate D2E/DX2                !
 ! A15   A(17,8,23)            111.7755         estimate D2E/DX2                !
 ! A16   A(17,8,24)            110.2342         estimate D2E/DX2                !
 ! A17   A(23,8,24)            106.3628         estimate D2E/DX2                !
 ! A18   A(6,9,10)             121.0426         estimate D2E/DX2                !
 ! A19   A(6,9,25)             120.0302         estimate D2E/DX2                !
 ! A20   A(10,9,25)            118.9118         estimate D2E/DX2                !
 ! A21   A(9,10,15)            118.6538         estimate D2E/DX2                !
 ! A22   A(9,10,16)            121.012          estimate D2E/DX2                !
 ! A23   A(15,10,16)           120.3336         estimate D2E/DX2                !
 ! A24   A(4,11,13)            125.3627         estimate D2E/DX2                !
 ! A25   A(4,11,26)            115.839          estimate D2E/DX2                !
 ! A26   A(13,11,26)           118.7914         estimate D2E/DX2                !
 ! A27   A(1,12,7)             120.7847         estimate D2E/DX2                !
 ! A28   A(1,12,13)            125.4453         estimate D2E/DX2                !
 ! A29   A(7,12,13)            113.7577         estimate D2E/DX2                !
 ! A30   A(11,13,12)           119.9036         estimate D2E/DX2                !
 ! A31   A(11,13,18)           114.2229         estimate D2E/DX2                !
 ! A32   A(12,13,18)           125.8693         estimate D2E/DX2                !
 ! A33   A(7,14,15)            121.5754         estimate D2E/DX2                !
 ! A34   A(7,14,27)            116.7317         estimate D2E/DX2                !
 ! A35   A(15,14,27)           121.6891         estimate D2E/DX2                !
 ! A36   A(10,15,14)           120.4403         estimate D2E/DX2                !
 ! A37   A(10,15,28)           119.5034         estimate D2E/DX2                !
 ! A38   A(14,15,28)           120.0276         estimate D2E/DX2                !
 ! A39   A(10,16,19)           121.3828         estimate D2E/DX2                !
 ! A40   A(10,16,20)           122.1664         estimate D2E/DX2                !
 ! A41   A(19,16,20)           116.4471         estimate D2E/DX2                !
 ! A42   A(8,17,29)            110.6437         estimate D2E/DX2                !
 ! A43   A(8,17,30)            111.7259         estimate D2E/DX2                !
 ! A44   A(8,17,31)            109.7007         estimate D2E/DX2                !
 ! A45   A(29,17,30)           108.0835         estimate D2E/DX2                !
 ! A46   A(29,17,31)           108.2733         estimate D2E/DX2                !
 ! A47   A(30,17,31)           108.3146         estimate D2E/DX2                !
 ! A48   A(2,18,3)             122.0972         estimate D2E/DX2                !
 ! A49   A(2,18,13)            114.3069         estimate D2E/DX2                !
 ! A50   A(3,18,13)            123.5611         estimate D2E/DX2                !
 ! A51   A(16,19,21)           119.9024         estimate D2E/DX2                !
 ! A52   A(16,19,32)           120.7558         estimate D2E/DX2                !
 ! A53   A(21,19,32)           119.333          estimate D2E/DX2                !
 ! A54   A(16,20,22)           119.6735         estimate D2E/DX2                !
 ! A55   A(16,20,33)           120.7546         estimate D2E/DX2                !
 ! A56   A(22,20,33)           119.5423         estimate D2E/DX2                !
 ! A57   A(5,21,19)            123.7634         estimate D2E/DX2                !
 ! A58   A(5,21,34)            115.8723         estimate D2E/DX2                !
 ! A59   A(19,21,34)           120.3643         estimate D2E/DX2                !
 ! A60   A(5,22,20)            123.9882         estimate D2E/DX2                !
 ! A61   A(5,22,35)            115.8149         estimate D2E/DX2                !
 ! A62   A(20,22,35)           120.1931         estimate D2E/DX2                !
 ! D1    D(36,2,18,3)           -0.4585         estimate D2E/DX2                !
 ! D2    D(36,2,18,13)        -178.3858         estimate D2E/DX2                !
 ! D3    D(8,4,6,7)            177.7753         estimate D2E/DX2                !
 ! D4    D(8,4,6,9)             -3.0224         estimate D2E/DX2                !
 ! D5    D(11,4,6,7)             0.5147         estimate D2E/DX2                !
 ! D6    D(11,4,6,9)           179.717          estimate D2E/DX2                !
 ! D7    D(6,4,8,17)           -83.5888         estimate D2E/DX2                !
 ! D8    D(6,4,8,23)            41.2077         estimate D2E/DX2                !
 ! D9    D(6,4,8,24)           155.3882         estimate D2E/DX2                !
 ! D10   D(11,4,8,17)           93.7117         estimate D2E/DX2                !
 ! D11   D(11,4,8,23)         -141.4917         estimate D2E/DX2                !
 ! D12   D(11,4,8,24)          -27.3112         estimate D2E/DX2                !
 ! D13   D(6,4,11,13)           -1.7209         estimate D2E/DX2                !
 ! D14   D(6,4,11,26)          179.2485         estimate D2E/DX2                !
 ! D15   D(8,4,11,13)         -179.0971         estimate D2E/DX2                !
 ! D16   D(8,4,11,26)            1.8723         estimate D2E/DX2                !
 ! D17   D(22,5,21,19)           0.0126         estimate D2E/DX2                !
 ! D18   D(22,5,21,34)         179.9901         estimate D2E/DX2                !
 ! D19   D(21,5,22,20)           0.2465         estimate D2E/DX2                !
 ! D20   D(21,5,22,35)         179.5318         estimate D2E/DX2                !
 ! D21   D(4,6,7,12)            -0.2041         estimate D2E/DX2                !
 ! D22   D(4,6,7,14)           179.5791         estimate D2E/DX2                !
 ! D23   D(9,6,7,12)          -179.4195         estimate D2E/DX2                !
 ! D24   D(9,6,7,14)             0.3638         estimate D2E/DX2                !
 ! D25   D(4,6,9,10)          -179.2029         estimate D2E/DX2                !
 ! D26   D(4,6,9,25)            -0.6495         estimate D2E/DX2                !
 ! D27   D(7,6,9,10)            -0.0107         estimate D2E/DX2                !
 ! D28   D(7,6,9,25)           178.5427         estimate D2E/DX2                !
 ! D29   D(6,7,12,1)          -177.9092         estimate D2E/DX2                !
 ! D30   D(6,7,12,13)            0.8843         estimate D2E/DX2                !
 ! D31   D(14,7,12,1)            2.3085         estimate D2E/DX2                !
 ! D32   D(14,7,12,13)        -178.898          estimate D2E/DX2                !
 ! D33   D(6,7,14,15)           -0.2727         estimate D2E/DX2                !
 ! D34   D(6,7,14,27)          179.0296         estimate D2E/DX2                !
 ! D35   D(12,7,14,15)         179.5191         estimate D2E/DX2                !
 ! D36   D(12,7,14,27)          -1.1786         estimate D2E/DX2                !
 ! D37   D(4,8,17,29)          -61.6375         estimate D2E/DX2                !
 ! D38   D(4,8,17,30)           58.8391         estimate D2E/DX2                !
 ! D39   D(4,8,17,31)          178.9697         estimate D2E/DX2                !
 ! D40   D(23,8,17,29)         175.1816         estimate D2E/DX2                !
 ! D41   D(23,8,17,30)         -64.3418         estimate D2E/DX2                !
 ! D42   D(23,8,17,31)          55.7887         estimate D2E/DX2                !
 ! D43   D(24,8,17,29)          57.1105         estimate D2E/DX2                !
 ! D44   D(24,8,17,30)         177.5871         estimate D2E/DX2                !
 ! D45   D(24,8,17,31)         -62.2824         estimate D2E/DX2                !
 ! D46   D(6,9,10,15)           -0.4334         estimate D2E/DX2                !
 ! D47   D(6,9,10,16)          179.834          estimate D2E/DX2                !
 ! D48   D(25,9,10,15)        -179.0026         estimate D2E/DX2                !
 ! D49   D(25,9,10,16)           1.2647         estimate D2E/DX2                !
 ! D50   D(9,10,15,14)           0.5271         estimate D2E/DX2                !
 ! D51   D(9,10,15,28)        -177.5271         estimate D2E/DX2                !
 ! D52   D(16,10,15,14)       -179.7384         estimate D2E/DX2                !
 ! D53   D(16,10,15,28)          2.2074         estimate D2E/DX2                !
 ! D54   D(9,10,16,19)        -149.1742         estimate D2E/DX2                !
 ! D55   D(9,10,16,20)          31.5521         estimate D2E/DX2                !
 ! D56   D(15,10,16,19)         31.0976         estimate D2E/DX2                !
 ! D57   D(15,10,16,20)       -148.176          estimate D2E/DX2                !
 ! D58   D(4,11,13,12)           2.4905         estimate D2E/DX2                !
 ! D59   D(4,11,13,18)        -178.2057         estimate D2E/DX2                !
 ! D60   D(26,11,13,12)       -178.5051         estimate D2E/DX2                !
 ! D61   D(26,11,13,18)          0.7987         estimate D2E/DX2                !
 ! D62   D(1,12,13,11)         176.81           estimate D2E/DX2                !
 ! D63   D(1,12,13,18)          -2.4065         estimate D2E/DX2                !
 ! D64   D(7,12,13,11)          -1.9177         estimate D2E/DX2                !
 ! D65   D(7,12,13,18)         178.8658         estimate D2E/DX2                !
 ! D66   D(11,13,18,2)         158.2441         estimate D2E/DX2                !
 ! D67   D(11,13,18,3)         -19.6488         estimate D2E/DX2                !
 ! D68   D(12,13,18,2)         -22.5007         estimate D2E/DX2                !
 ! D69   D(12,13,18,3)         159.6064         estimate D2E/DX2                !
 ! D70   D(7,14,15,10)          -0.1755         estimate D2E/DX2                !
 ! D71   D(7,14,15,28)         177.8685         estimate D2E/DX2                !
 ! D72   D(27,14,15,10)       -179.4432         estimate D2E/DX2                !
 ! D73   D(27,14,15,28)         -1.3992         estimate D2E/DX2                !
 ! D74   D(10,16,19,21)       -179.1904         estimate D2E/DX2                !
 ! D75   D(10,16,19,32)          1.8974         estimate D2E/DX2                !
 ! D76   D(20,16,19,21)          0.1228         estimate D2E/DX2                !
 ! D77   D(20,16,19,32)       -178.7894         estimate D2E/DX2                !
 ! D78   D(10,16,20,22)        179.4221         estimate D2E/DX2                !
 ! D79   D(10,16,20,33)          1.4108         estimate D2E/DX2                !
 ! D80   D(19,16,20,22)          0.1147         estimate D2E/DX2                !
 ! D81   D(19,16,20,33)       -177.8967         estimate D2E/DX2                !
 ! D82   D(16,19,21,5)          -0.197          estimate D2E/DX2                !
 ! D83   D(16,19,21,34)        179.8265         estimate D2E/DX2                !
 ! D84   D(32,19,21,5)         178.7307         estimate D2E/DX2                !
 ! D85   D(32,19,21,34)         -1.2458         estimate D2E/DX2                !
 ! D86   D(16,20,22,5)          -0.3164         estimate D2E/DX2                !
 ! D87   D(16,20,22,35)       -179.5721         estimate D2E/DX2                !
 ! D88   D(33,20,22,5)         177.7193         estimate D2E/DX2                !
 ! D89   D(33,20,22,35)         -1.5364         estimate D2E/DX2                !
 --------------------------------------------------------------------------------
 Trust Radius=3.00D-01 FncErr=1.00D-07 GrdErr=1.00D-06
 Number of steps in this run=    199 maximum allowed number of steps=    216.
 GradGradGradGradGradGradGradGradGradGradGradGradGradGradGradGradGradGrad

                          Input orientation:                          
 ---------------------------------------------------------------------
 Center     Atomic      Atomic             Coordinates (Angstroms)
 Number     Number       Type             X           Y           Z
 ---------------------------------------------------------------------
      1          8           0        6.400000    5.888000    7.848000
      2          8           0        3.920000    6.965000    7.028000
      3          8           0        3.769000    9.194000    7.421000
      4          7           0        7.831000    9.685000    7.064000
      5          7           0       15.302000    8.482000    7.329000
      6          6           0        8.748000    8.646000    7.285000
      7          6           0        8.251000    7.347000    7.538000
      8          6           0        8.257000   11.075000    6.841000
      9          6           0       10.132000    8.869000    7.243000
     10          6           0       11.036000    7.825000    7.448000
     11          6           0        6.502000    9.425000    7.108000
     12          6           0        6.798000    7.037000    7.584000
     13          6           0        5.941000    8.192000    7.324000
     14          6           0        9.170000    6.312000    7.749000
     15          6           0       10.531000    6.535000    7.709000
     16          6           0       12.494000    8.060000    7.400000
     17          6           0        8.519000   11.833000    8.137000
     18          6           0        4.463000    8.182000    7.281000
     19          6           0       13.380000    7.063000    6.971000
     20          6           0       13.067000    9.278000    7.792000
     21          6           0       14.749000    7.312000    6.954000
     22          6           0       14.449000    9.439000    7.737000
     23          1           0        9.137000   11.075000    6.184000
     24          1           0        7.448000   11.558000    6.275000
     25          1           0       10.517000    9.863000    7.025000
     26          1           0        5.844000   10.280000    6.940000
     27          1           0        8.757000    5.324000    7.958000
     28          1           0       11.223000    5.719000    7.911000
     29          1           0        7.604000   11.895000    8.741000
     30          1           0        9.294000   11.347000    8.742000
     31          1           0        8.850000   12.854000    7.908000
     32          1           0       13.009000    6.096000    6.632000
     33          1           0       12.446000   10.090000    8.170000
     34          1           0       15.446000    6.540000    6.624000
     35          1           0       14.905000   10.382000    8.047000
     36          1           0        2.948000    7.120000    7.004000
 ---------------------------------------------------------------------
                    Distance matrix (angstroms):
                    1          2          3          4          5
     1  O    0.000000
     2  O    2.825372   0.000000
     3  O    4.246661   2.268412   0.000000
     4  N    4.132750   4.763992   4.107113   0.000000
     5  N    9.286754  11.486593  11.555323   7.571874   0.000000
     6  C    3.665602   5.118730   5.010912   1.403300   6.556199
     7  C    2.377179   4.377623   4.849064   2.422255   7.144824
     8  C    5.600667   5.978013   4.900684   1.470818   7.522886
     9  C    4.814583   6.500799   6.373781   2.447958   5.185177
    10  C    5.040284   7.180074   7.394875   3.725464   4.317935
    11  C    3.615020   3.567173   2.760547   1.354908   8.853140
    12  C    1.244307   2.932099   3.722104   2.889532   8.629662
    13  C    2.407005   2.382769   2.393950   2.422550   9.365492
    14  C    2.804011   5.339359   6.130604   3.693139   6.518184
    15  C    4.183670   6.659879   7.271717   4.198634   5.166977
    16  C    6.484992   8.651641   8.798410   4.949454   2.840421
    17  C    6.317967   6.788086   5.480828   2.497714   7.608624
    18  C    3.055470   1.356446   1.235063   3.694526  10.843257
    19  C    7.132332   9.460679   9.854693   6.137991   2.415742
    20  C    7.479581   9.465795   9.305778   5.302012   2.417273
    21  C    8.516620  10.834811  11.149906   7.314503   1.347343
    22  C    8.798200  10.838967  10.687482   6.656679   1.345333
    23  H    6.096313   6.694888   5.820975   2.100509   6.785418
    24  H    5.976749   5.840329   4.520714   2.068173   8.500471
    25  H    5.781664   7.205472   6.792634   2.692174   4.989569
    26  H    4.519211   3.833894   2.390896   2.077876   9.635242
    27  H    2.426035   5.191758   6.336041   4.546981   7.294219
    28  H    4.826371   7.460966   8.238801   5.286987   4.960961
    29  H    6.191213   6.388359   4.872887   2.783515   8.538239
    30  H    6.243008   7.142800   6.075037   2.778182   6.804473
    31  H    7.384528   7.730435   6.280870   3.434131   7.815237
    32  H    6.723154   9.139032   9.777409   6.315000   3.381812
    33  H    7.369844   9.152184   8.755235   4.762928   3.383738
    34  H    9.151688  11.540906  12.001302   8.250627   2.071020
    35  H    9.621365  11.549220  11.216671   7.175902   2.069573
    36  H    3.761179   0.984574   2.269230   5.516023  12.433100
                    6          7          8          9         10
     6  C    0.000000
     7  C    1.413654   0.000000
     8  C    2.517590   3.792602   0.000000
     9  C    1.402480   2.437554   2.922955   0.000000
    10  C    2.436299   2.827156   4.319003   1.396129   0.000000
    11  C    2.383839   2.749906   2.423595   3.674814   4.820037
    12  C    2.545738   1.486413   4.357313   3.819432   4.312781
    13  C    2.843745   2.468992   3.729455   4.246101   5.109705
    14  C    2.416803   1.400110   4.933984   2.778440   2.421100
    15  C    2.795565   2.426311   5.151320   2.413278   1.409697
    16  C    3.793302   4.304702   5.230189   2.501634   1.477597
    17  C    3.306859   4.533742   1.524081   3.490888   4.782685
    18  C    4.310051   3.887444   4.791397   5.710602   6.584806
    19  C    4.905090   5.168054   6.508316   3.726275   2.510480
    20  C    4.394341   5.194914   5.222041   3.013786   2.520815
    21  C    6.156388   6.524284   7.504599   4.881031   3.780684
    22  C    5.773608   6.544560   6.466852   4.382399   3.786434
    23  H    2.695100   4.064025   1.098203   2.641579   3.970692
    24  H    3.345122   4.469060   1.099148   3.920663   5.308951
    25  H    2.162880   3.424643   2.571070   1.088019   2.145165
    26  H    3.349955   3.841060   2.542517   4.524342   5.765583
    27  H    3.389498   2.127197   5.879770   3.868963   3.421833
    28  H    3.883919   3.409149   6.215207   3.399854   2.164388
    29  H    3.739609   4.748697   2.169979   4.217993   5.478629
    30  H    3.117109   4.305516   2.182465   3.014918   4.136845
    31  H    4.255091   5.551824   2.157540   4.238629   5.502821
    32  H    5.008496   5.002440   6.885901   4.042274   2.747367
    33  H    4.067378   5.051881   4.503797   2.775746   2.763984
    34  H    7.052330   7.297580   8.502649   5.834895   4.666723
    35  H    6.442281   7.331168   6.791950   5.071204   4.676132
    36  H    6.003968   5.334650   6.622241   7.397701   8.130800
                   11         12         13         14         15
    11  C    0.000000
    12  C    2.452904   0.000000
    13  C    1.371738   1.461531   0.000000
    14  C    4.149684   2.485807   3.760514   0.000000
    15  C    4.994611   3.768676   4.895097   1.379728   0.000000
    16  C    6.152443   5.790061   6.554770   3.771774   2.504890
    17  C    3.305389   5.125355   4.534747   5.572772   5.683321
    18  C    2.394264   2.618217   1.478659   5.086430   6.302096
    19  C    7.273562   6.610535   7.532461   4.346652   2.990022
    20  C    6.602173   6.660759   7.223455   4.897511   3.736607
    21  C    8.514781   7.980659   8.859580   5.723396   4.354914
    22  C    7.971866   8.020649   8.608812   6.135643   4.876958
    23  H    3.243378   4.871998   4.452607   5.013630   4.988032
    24  H    2.477598   4.751360   3.834241   5.714759   6.065622
    25  H    4.039673   4.704223   4.880719   3.866288   3.397593
    26  H    1.091885   3.441206   2.125232   5.240399   6.048500
    27  H    4.756651   2.629054   4.069058   1.091052   2.162313
    28  H    6.055335   4.628680   5.861725   2.143059   1.088818
    29  H    3.159429   5.058503   4.299496   5.882713   6.193703
    30  H    3.762885   5.113422   4.817402   5.133483   5.074702
    31  H    4.232156   6.176825   5.526082   6.551751   6.541798
    32  H    7.324607   6.353606   7.404641   4.004031   2.737359
    33  H    6.074636   6.447023   6.828847   5.018237   4.064206
    34  H    9.410240   8.715303   9.672855   6.380109   5.033336
    35  H    8.509288   8.782189   9.255924   7.038745   5.834855
    36  H    4.237305   3.894328   3.195252   6.318320   7.638137
                   16         17         18         19         20
    16  C    0.000000
    17  C    5.529857   0.000000
    18  C    8.032808   5.523918   0.000000
    19  C    1.401087   6.909542   8.992283   0.000000
    20  C    1.401969   5.227940   8.688564   2.382905   0.000000
    21  C    2.417322   7.787928  10.327905   1.391564   2.719655
    22  C    2.416037   6.407506  10.075127   2.715675   1.392433
    23  H    4.673150   2.184193   5.605277   5.892246   4.610832
    24  H    6.242095   2.165574   4.617319   7.475163   6.250828
    25  H    2.701844   3.018186   6.288260   4.004958   2.726355
    26  H    7.025845   3.316661   2.534767   8.193982   7.341773
    27  H    4.665000   6.515809   5.202396   5.036906   5.851305
    28  H    2.712350   6.689072   7.222248   2.709720   4.010109
    29  H    6.357484   1.098128   5.077780   7.735845   6.131367
    30  H    4.779679   1.096743   5.957374   6.179360   4.406676
    31  H    6.043115   1.097471   6.439447   7.411785   5.530309
    32  H    2.170794   7.438971   8.820811   1.089794   3.387342
    33  H    2.171659   4.296565   8.255851   3.387135   1.089894
    34  H    3.409821   8.848070  11.124482   2.159235   3.810579
    35  H    3.409284   6.549389  10.698697   3.807777   2.159186
    36  H    9.600340   7.384585   1.870775  10.432208  10.376515
                   21         22         23         24         25
    21  C    0.000000
    22  C    2.286311   0.000000
    23  H    6.800560   5.771105   0.000000
    24  H    8.473143   7.459330   1.759060   0.000000
    25  H    4.941909   4.018376   2.020056   3.585287   0.000000
    26  H    9.386599   8.682656   3.470938   2.155997   4.692339
    27  H    6.392513   7.027157   6.030380   6.588530   4.956875
    28  H    3.985746   4.927043   6.001722   7.142902   4.296064
    29  H    8.674577   7.341252   3.092044   2.493805   3.944521
    30  H    7.016779   5.587890   2.577207   3.088418   2.577998
    31  H    8.149974   6.560508   2.493870   2.512351   3.536193
    32  H    2.147077   3.803981   6.323253   7.802923   4.533740
    33  H    3.807854   2.150186   3.982951   5.543109   2.254683
    34  H    1.091189   3.261438   7.782243   9.448287   5.958034
    35  H    3.262497   1.092376   6.100889   7.754341   4.535239
    36  H   11.802668  11.755341   7.390409   6.362176   8.050730
                   26         27         28         29         30
    26  H    0.000000
    27  H    5.838136   0.000000
    28  H    7.118933   2.497877   0.000000
    29  H    2.991559   6.717182   7.206180   0.000000
    30  H    4.035863   6.097504   6.007161   1.776627   0.000000
    31  H    4.074130   7.530740   7.519266   1.779350   1.778691
    32  H    8.302888   4.520372   2.228849   8.203067   6.769514
    33  H    6.718289   6.030624   4.546257   5.198945   3.441270
    34  H   10.309503   6.928271   4.490450   9.729064   8.089516
    35  H    9.128942   7.961733   5.942995   7.488351   5.735640
    36  H    4.286783   6.154690   8.441628   6.891744   7.820479
                   31         32         33         34         35
    31  H    0.000000
    32  H    8.037165   0.000000
    33  H    4.543078   4.316764   0.000000
    34  H    9.220763   2.477129   4.898226   0.000000
    35  H    6.541646   4.895594   2.479329   4.132623   0.000000
    36  H    8.278259  10.119816  10.019604  12.517220  12.437779
                   36
    36  H    0.000000
 Stoichiometry    C17H14N2O3
 Framework group  C1[X(C17H14N2O3)]
 Deg. of freedom   102
 Full point group                 C1      NOp   1
 Largest Abelian subgroup         C1      NOp   1
 Largest concise Abelian subgroup C1      NOp   1
                         Standard orientation:                         
 ---------------------------------------------------------------------
 Center     Atomic      Atomic             Coordinates (Angstroms)
 Number     Number       Type             X           Y           Z
 ---------------------------------------------------------------------
      1          8           0       -2.767492   -2.465721    0.477344
      2          8           0       -5.248624   -1.386217   -0.335912
      3          8           0       -5.390493    0.845737    0.043485
      4          7           0       -1.329021    1.321608   -0.339090
      5          7           0        6.139544    0.096783   -0.107535
      6          6           0       -0.414056    0.281169   -0.116435
      7          6           0       -0.913696   -1.014598    0.147703
      8          6           0       -0.899930    2.708790   -0.573425
      9          6           0        0.970379    0.499526   -0.167512
     10          6           0        1.872240   -0.545976    0.039248
     11          6           0       -2.658561    1.066091   -0.286077
     12          6           0       -2.367379   -1.319710    0.203723
     13          6           0       -3.222199   -0.163714   -0.059012
     14          6           0        0.003226   -2.051108    0.360321
     15          6           0        1.364672   -1.832665    0.311371
     16          6           0        3.330678   -0.315890   -0.018315
     17          6           0       -0.628395    3.474306    0.716178
     18          6           0       -4.700439   -0.169329   -0.093791
     19          6           0        4.211175   -1.318427   -0.445737
     20          6           0        3.909635    0.902800    0.362629
     21          6           0        5.580830   -1.073862   -0.471901
     22          6           0        5.291805    1.059082    0.298965
     23          1           0       -0.023586    2.701774   -1.235257
     24          1           0       -1.710541    3.190677   -1.138067
     25          1           0        1.357264    1.490880   -0.394059
     26          1           0       -3.314812    1.922060   -0.455972
     27          1           0       -0.411689   -3.036431    0.577985
     28          1           0        2.055232   -2.649523    0.514825
     29          1           0       -1.539838    3.543088    1.324803
     30          1           0        0.148424    2.989778    1.320025
     31          1           0       -0.295485    4.492758    0.478754
     32          1           0        3.835290   -2.286420   -0.776421
     33          1           0        3.293273    1.719177    0.738788
     34          1           0        6.273581   -1.850170   -0.800739
     35          1           0        5.752453    2.002620    0.600336
     36          1           0       -6.220254   -1.228310   -0.355552
 ---------------------------------------------------------------------
 Rotational constants (GHZ):      0.6824550      0.1379299      0.1168631
 Standard basis: 3-21G (6D, 7F)
 There are   226 symmetry adapted cartesian basis functions of A   symmetry.
 There are   226 symmetry adapted basis functions of A   symmetry.
   226 basis functions,   372 primitive gaussians,   226 cartesian basis functions
    77 alpha electrons       77 beta electrons
       nuclear repulsion energy      1654.0966805757 Hartrees.
 NAtoms=   36 NActive=   36 NUniq=   36 SFac= 1.00D+00 NAtFMM=   60 NAOKFM=F Big=F
 Integral buffers will be    131072 words long.
 Raffenetti 2 integral format.
 Two-electron integral symmetry is turned on.
 One-electron integrals computed using PRISM.
 PrsmSu:  requested number of processors reduced to:   9 ShMem   1 Linda.
 NBasis=   226 RedAO= T EigKep=  1.22D-03  NBF=   226
 NBsUse=   226 1.00D-06 EigRej= -1.00D+00 NBFU=   226
 ExpMin= 1.83D-01 ExpMax= 3.22D+02 ExpMxC= 3.22D+02 IAcc=1 IRadAn=         1 AccDes= 0.00D+00
 Harris functional with IExCor=  402 and IRadAn=       1 diagonalized for initial guess.
 HarFok:  IExCor=  402 AccDes= 0.00D+00 IRadAn=         1 IDoV= 1 UseB2=F ITyADJ=14
 ICtDFT=  3500011 ScaDFX=  1.000000  1.000000  1.000000  1.000000
 FoFCou: FMM=F IPFlag=           0 FMFlag=      100000 FMFlg1=           0
         NFxFlg=           0 DoJE=T BraDBF=F KetDBF=T FulRan=T
         wScrn=  0.000000 ICntrl=     500 IOpCl=  0 I1Cent=   200000004 NGrid=           0
         NMat0=    1 NMatS0=      1 NMatT0=    0 NMatD0=    1 NMtDS0=    0 NMtDT0=    0
 Petite list used in FoFCou.
 Requested convergence on RMS density matrix=1.00D-08 within 128 cycles.
 Requested convergence on MAX density matrix=1.00D-06.
 Requested convergence on             energy=1.00D-06.
 No special actions if energy rises.
 Integral accuracy reduced to 1.0D-05 until final iterations.
 Initial convergence to 1.0D-05 achieved.  Increase integral accuracy.
 SCF Done:  E(RB3LYP) =  -985.976048335     A.U. after   16 cycles
            NFock= 16  Conv=0.96D-08     -V/T= 2.0082

 **********************************************************************

            Population analysis using the SCF density.

 **********************************************************************

 Orbital symmetries:
       Occupied  (A) (A) (A) (A) (A) (A) (A) (A) (A) (A) (A) (A)
                 (A) (A) (A) (A) (A) (A) (A) (A) (A) (A) (A) (A)
                 (A) (A) (A) (A) (A) (A) (A) (A) (A) (A) (A) (A)
                 (A) (A) (A) (A) (A) (A) (A) (A) (A) (A) (A) (A)
                 (A) (A) (A) (A) (A) (A) (A) (A) (A) (A) (A) (A)
                 (A) (A) (A) (A) (A) (A) (A) (A) (A) (A) (A) (A)
                 (A) (A) (A) (A) (A)
       Virtual   (A) (A) (A) (A) (A) (A) (A) (A) (A) (A) (A) (A)
                 (A) (A) (A) (A) (A) (A) (A) (A) (A) (A) (A) (A)
                 (A) (A) (A) (A) (A) (A) (A) (A) (A) (A) (A) (A)
                 (A) (A) (A) (A) (A) (A) (A) (A) (A) (A) (A) (A)
                 (A) (A) (A) (A) (A) (A) (A) (A) (A) (A) (A) (A)
                 (A) (A) (A) (A) (A) (A) (A) (A) (A) (A) (A) (A)
                 (A) (A) (A) (A) (A) (A) (A) (A) (A) (A) (A) (A)
                 (A) (A) (A) (A) (A) (A) (A) (A) (A) (A) (A) (A)
                 (A) (A) (A) (A) (A) (A) (A) (A) (A) (A) (A) (A)
                 (A) (A) (A) (A) (A) (A) (A) (A) (A) (A) (A) (A)
                 (A) (A) (A) (A) (A) (A) (A) (A) (A) (A) (A) (A)
                 (A) (A) (A) (A) (A) (A) (A) (A) (A) (A) (A) (A)
                 (A) (A) (A) (A) (A)
 The electronic state is 1-A.
 Alpha  occ. eigenvalues --  -19.07657 -19.01989 -19.00386 -14.34686 -14.26020
 Alpha  occ. eigenvalues --  -10.25726 -10.20750 -10.20548 -10.20465 -10.20144
 Alpha  occ. eigenvalues --  -10.17409 -10.17325 -10.17287 -10.16998 -10.15880
 Alpha  occ. eigenvalues --  -10.15377 -10.15267 -10.15095 -10.14772 -10.14659
 Alpha  occ. eigenvalues --  -10.14613 -10.14567  -1.10554  -1.02725  -1.01843
 Alpha  occ. eigenvalues --   -1.01124  -0.96560  -0.89197  -0.84402  -0.83306
 Alpha  occ. eigenvalues --   -0.79601  -0.77871  -0.77425  -0.76901  -0.69345
 Alpha  occ. eigenvalues --   -0.68213  -0.67669  -0.64729  -0.63516  -0.61592
 Alpha  occ. eigenvalues --   -0.60801  -0.57297  -0.54968  -0.54007  -0.52433
 Alpha  occ. eigenvalues --   -0.50724  -0.49061  -0.48656  -0.48454  -0.47772
 Alpha  occ. eigenvalues --   -0.46833  -0.46133  -0.45337  -0.45049  -0.44499
 Alpha  occ. eigenvalues --   -0.44152  -0.43392  -0.42025  -0.41328  -0.40860
 Alpha  occ. eigenvalues --   -0.39809  -0.39284  -0.38639  -0.37947  -0.37043
 Alpha  occ. eigenvalues --   -0.37012  -0.36494  -0.35947  -0.31431  -0.29662
 Alpha  occ. eigenvalues --   -0.28112  -0.27831  -0.26591  -0.25712  -0.25288
 Alpha  occ. eigenvalues --   -0.23129  -0.22465
 Alpha virt. eigenvalues --   -0.06722  -0.04855  -0.02003  -0.01198   0.00248
 Alpha virt. eigenvalues --    0.03687   0.07779   0.08760   0.10093   0.11114
 Alpha virt. eigenvalues --    0.11638   0.12225   0.12395   0.13679   0.14768
 Alpha virt. eigenvalues --    0.15537   0.15942   0.17036   0.17354   0.17873
 Alpha virt. eigenvalues --    0.18492   0.18812   0.20427   0.22089   0.22298
 Alpha virt. eigenvalues --    0.23001   0.24020   0.25460   0.26079   0.28783
 Alpha virt. eigenvalues --    0.29303   0.29567   0.31862   0.32578   0.33795
 Alpha virt. eigenvalues --    0.35523   0.36974   0.39116   0.41073   0.41979
 Alpha virt. eigenvalues --    0.44741   0.48315   0.50243   0.51927   0.53286
 Alpha virt. eigenvalues --    0.57990   0.59806   0.62606   0.63408   0.65182
 Alpha virt. eigenvalues --    0.66276   0.67666   0.68709   0.69046   0.69732
 Alpha virt. eigenvalues --    0.70812   0.71045   0.72312   0.72708   0.73340
 Alpha virt. eigenvalues --    0.73449   0.74568   0.75862   0.76426   0.77112
 Alpha virt. eigenvalues --    0.77372   0.77581   0.78398   0.79480   0.79971
 Alpha virt. eigenvalues --    0.80200   0.80959   0.82316   0.83280   0.83691
 Alpha virt. eigenvalues --    0.84526   0.85618   0.86072   0.87234   0.87949
 Alpha virt. eigenvalues --    0.91594   0.93203   0.94969   0.96456   0.96713
 Alpha virt. eigenvalues --    0.97700   0.97887   0.99205   1.02126   1.03302
 Alpha virt. eigenvalues --    1.04735   1.06886   1.07189   1.08761   1.10187
 Alpha virt. eigenvalues --    1.11167   1.13783   1.15242   1.19522   1.20360
 Alpha virt. eigenvalues --    1.22824   1.23435   1.26618   1.27887   1.28452
 Alpha virt. eigenvalues --    1.30596   1.31215   1.33263   1.35246   1.36610
 Alpha virt. eigenvalues --    1.37371   1.39604   1.43459   1.44010   1.45409
 Alpha virt. eigenvalues --    1.47022   1.48885   1.50350   1.52697   1.53706
 Alpha virt. eigenvalues --    1.55183   1.56638   1.57375   1.58837   1.60864
 Alpha virt. eigenvalues --    1.63092   1.64676   1.66146   1.68588   1.68800
 Alpha virt. eigenvalues --    1.70271   1.73119   1.75547   1.80003   1.83611
 Alpha virt. eigenvalues --    1.87295   1.91149   1.96983   1.98349   1.99832
 Alpha virt. eigenvalues --    2.03529   2.10445   2.18966   2.47911   2.91260
 Alpha virt. eigenvalues --    3.01289   3.13815   3.38018   3.57372
          Condensed to atoms (all electrons):
               1          2          3          4          5          6
     1  O    8.071696  -0.000771   0.000000  -0.000023   0.000000   0.003436
     2  O   -0.000771   8.230184  -0.063520  -0.000001   0.000000  -0.000002
     3  O    0.000000  -0.063520   8.140872   0.000083   0.000000   0.000001
     4  N   -0.000023  -0.000001   0.000083   7.446448   0.000000   0.187736
     5  N    0.000000   0.000000   0.000000   0.000000   6.908906   0.000000
     6  C    0.003436  -0.000002   0.000001   0.187736   0.000000   5.038788
     7  C   -0.122424   0.000088  -0.000016  -0.031496   0.000000   0.312042
     8  C    0.000000   0.000000   0.000003   0.246317   0.000000  -0.051934
     9  C    0.000002   0.000000   0.000000  -0.049189  -0.000003   0.402177
    10  C   -0.000008   0.000000   0.000000   0.004326   0.000184  -0.051689
    11  C    0.003495   0.002795   0.004707   0.244222   0.000000  -0.066449
    12  C    0.640382   0.002443   0.001867  -0.035698   0.000000   0.000177
    13  C   -0.116735  -0.097324  -0.115336  -0.016805   0.000000  -0.020635
    14  C    0.001230   0.000000   0.000000   0.005078   0.000000  -0.076092
    15  C    0.000492   0.000000   0.000000  -0.000241  -0.000003  -0.026739
    16  C    0.000000   0.000000   0.000000  -0.000033  -0.025635   0.004104
    17  C    0.000000   0.000000   0.000000  -0.058172   0.000000   0.000015
    18  C   -0.003089   0.223236   0.519202   0.004447   0.000000  -0.000585
    19  C    0.000000   0.000000   0.000000   0.000000  -0.057142  -0.000091
    20  C    0.000000   0.000000   0.000000   0.000002  -0.056910   0.000131
    21  C    0.000000   0.000000   0.000000   0.000000   0.418797   0.000000
    22  C    0.000000   0.000000   0.000000   0.000000   0.421316  -0.000002
    23  H    0.000000   0.000000   0.000000  -0.033820   0.000000  -0.002667
    24  H    0.000000   0.000000  -0.000004  -0.033673   0.000000   0.002884
    25  H    0.000000   0.000000   0.000000  -0.007163   0.000001  -0.046328
    26  H   -0.000004   0.000237   0.017440  -0.035867   0.000000   0.003063
    27  H    0.015941   0.000000   0.000000  -0.000015   0.000000   0.003175
    28  H    0.000002   0.000000   0.000000   0.000000   0.000001  -0.000147
    29  H    0.000000   0.000000   0.000000  -0.000777   0.000000  -0.000021
    30  H    0.000000   0.000000   0.000000  -0.002091   0.000000   0.001845
    31  H    0.000000   0.000000   0.000000   0.002715   0.000000  -0.000017
    32  H    0.000000   0.000000   0.000000   0.000000   0.002535  -0.000005
    33  H    0.000000   0.000000   0.000000  -0.000001   0.002567  -0.000035
    34  H    0.000000   0.000000   0.000000   0.000000  -0.045362   0.000000
    35  H    0.000000   0.000000   0.000000   0.000000  -0.045821   0.000000
    36  H    0.000125   0.240276   0.005414   0.000000   0.000000   0.000000
               7          8          9         10         11         12
     1  O   -0.122424   0.000000   0.000002  -0.000008   0.003495   0.640382
     2  O    0.000088   0.000000   0.000000   0.000000   0.002795   0.002443
     3  O   -0.000016   0.000003   0.000000   0.000000   0.004707   0.001867
     4  N   -0.031496   0.246317  -0.049189   0.004326   0.244222  -0.035698
     5  N    0.000000   0.000000  -0.000003   0.000184   0.000000   0.000000
     6  C    0.312042  -0.051934   0.402177  -0.051689  -0.066449   0.000177
     7  C    5.942162   0.001198  -0.051220  -0.031654  -0.010535  -0.026697
     8  C    0.001198   5.203260  -0.004346   0.000226  -0.064866   0.000035
     9  C   -0.051220  -0.004346   5.240278   0.441470   0.002112   0.005534
    10  C   -0.031654   0.000226   0.441470   5.126914  -0.000091  -0.000971
    11  C   -0.010535  -0.064866   0.002112  -0.000091   5.086074  -0.020334
    12  C   -0.026697   0.000035   0.005534  -0.000971  -0.020334   5.183107
    13  C   -0.170733   0.002202  -0.000660  -0.000017   0.325862  -0.052424
    14  C    0.374706  -0.000080  -0.038200  -0.064108  -0.001192  -0.078458
    15  C   -0.079626  -0.000001  -0.072399   0.428653   0.000013   0.008991
    16  C    0.000095  -0.000002  -0.069223   0.362472   0.000001  -0.000002
    17  C   -0.000025   0.262135  -0.001236  -0.000006  -0.000366  -0.000006
    18  C    0.006071  -0.000052  -0.000002   0.000000  -0.093905  -0.035703
    19  C    0.000004   0.000000   0.002769  -0.066094   0.000000   0.000000
    20  C    0.000000   0.000000  -0.006081  -0.064806   0.000000   0.000000
    21  C    0.000000   0.000000  -0.000080   0.004208   0.000000   0.000000
    22  C    0.000000   0.000000   0.000091   0.004202   0.000000   0.000000
    23  H    0.000190   0.368676   0.001037  -0.000004   0.002808   0.000005
    24  H   -0.000070   0.373737   0.000124  -0.000003  -0.001021  -0.000007
    25  H    0.004094   0.001781   0.386602  -0.041545  -0.000014  -0.000005
    26  H   -0.000454  -0.002376  -0.000062   0.000000   0.367602   0.002703
    27  H   -0.057335   0.000001   0.000074   0.003200  -0.000063   0.000975
    28  H    0.004462   0.000000   0.004013  -0.043602   0.000000  -0.000018
    29  H    0.000003  -0.039986  -0.000003   0.000001   0.002288   0.000000
    30  H   -0.000028  -0.040202   0.002082  -0.000011  -0.000089  -0.000002
    31  H    0.000000  -0.035846  -0.000015   0.000000  -0.000004   0.000000
    32  H    0.000001   0.000000   0.000052  -0.004763   0.000000   0.000000
    33  H    0.000001  -0.000012   0.002778  -0.004766   0.000000   0.000000
    34  H    0.000000   0.000000   0.000000  -0.000043   0.000000   0.000000
    35  H    0.000000   0.000000  -0.000001  -0.000043   0.000000   0.000000
    36  H    0.000004   0.000000   0.000000   0.000000  -0.000291  -0.000130
              13         14         15         16         17         18
     1  O   -0.116735   0.001230   0.000492   0.000000   0.000000  -0.003089
     2  O   -0.097324   0.000000   0.000000   0.000000   0.000000   0.223236
     3  O   -0.115336   0.000000   0.000000   0.000000   0.000000   0.519202
     4  N   -0.016805   0.005078  -0.000241  -0.000033  -0.058172   0.004447
     5  N    0.000000   0.000000  -0.000003  -0.025635   0.000000   0.000000
     6  C   -0.020635  -0.076092  -0.026739   0.004104   0.000015  -0.000585
     7  C   -0.170733   0.374706  -0.079626   0.000095  -0.000025   0.006071
     8  C    0.002202  -0.000080  -0.000001  -0.000002   0.262135  -0.000052
     9  C   -0.000660  -0.038200  -0.072399  -0.069223  -0.001236  -0.000002
    10  C   -0.000017  -0.064108   0.428653   0.362472  -0.000006   0.000000
    11  C    0.325862  -0.001192   0.000013   0.000001  -0.000366  -0.093905
    12  C   -0.052424  -0.078458   0.008991  -0.000002  -0.000006  -0.035703
    13  C    6.410455   0.013784  -0.000029   0.000000  -0.000089   0.069933
    14  C    0.013784   5.288834   0.395177   0.004461   0.000003   0.000004
    15  C   -0.000029   0.395177   5.237173  -0.069202  -0.000001   0.000000
    16  C    0.000000   0.004461  -0.069202   5.192679   0.000003   0.000000
    17  C   -0.000089   0.000003  -0.000001   0.000003   5.365511   0.000002
    18  C    0.069933   0.000004   0.000000   0.000000   0.000002   4.692488
    19  C    0.000000   0.000098  -0.006097   0.403239   0.000000   0.000000
    20  C    0.000000  -0.000084   0.002672   0.404092  -0.000016   0.000000
    21  C    0.000000  -0.000002   0.000104  -0.076307   0.000000   0.000000
    22  C    0.000000   0.000000  -0.000075  -0.076448   0.000000   0.000000
    23  H   -0.000098  -0.000004   0.000000  -0.000007  -0.049414   0.000001
    24  H    0.000586   0.000001   0.000000   0.000000  -0.046581  -0.000015
    25  H    0.000003  -0.000334   0.004002  -0.006047  -0.000701   0.000000
    26  H   -0.052094   0.000001   0.000000   0.000000   0.000144   0.000406
    27  H    0.001325   0.376134  -0.027393  -0.000068   0.000000   0.000004
    28  H    0.000001  -0.038040   0.390681  -0.006295   0.000000   0.000000
    29  H   -0.000060   0.000000   0.000000   0.000000   0.368501   0.000000
    30  H    0.000015  -0.000002   0.000000  -0.000002   0.367285   0.000000
    31  H    0.000001   0.000000   0.000000   0.000000   0.351173   0.000000
    32  H    0.000000  -0.000026   0.002957  -0.042198   0.000000   0.000000
    33  H    0.000000  -0.000006   0.000037  -0.043383   0.000048   0.000000
    34  H    0.000000   0.000000  -0.000001   0.004124   0.000000   0.000000
    35  H    0.000000   0.000000   0.000000   0.004183   0.000000   0.000000
    36  H    0.012530   0.000000   0.000000   0.000000   0.000000  -0.030982
              19         20         21         22         23         24
     1  O    0.000000   0.000000   0.000000   0.000000   0.000000   0.000000
     2  O    0.000000   0.000000   0.000000   0.000000   0.000000   0.000000
     3  O    0.000000   0.000000   0.000000   0.000000   0.000000  -0.000004
     4  N    0.000000   0.000002   0.000000   0.000000  -0.033820  -0.033673
     5  N   -0.057142  -0.056910   0.418797   0.421316   0.000000   0.000000
     6  C   -0.000091   0.000131   0.000000  -0.000002  -0.002667   0.002884
     7  C    0.000004   0.000000   0.000000   0.000000   0.000190  -0.000070
     8  C    0.000000   0.000000   0.000000   0.000000   0.368676   0.373737
     9  C    0.002769  -0.006081  -0.000080   0.000091   0.001037   0.000124
    10  C   -0.066094  -0.064806   0.004208   0.004202  -0.000004  -0.000003
    11  C    0.000000   0.000000   0.000000   0.000000   0.002808  -0.001021
    12  C    0.000000   0.000000   0.000000   0.000000   0.000005  -0.000007
    13  C    0.000000   0.000000   0.000000   0.000000  -0.000098   0.000586
    14  C    0.000098  -0.000084  -0.000002   0.000000  -0.000004   0.000001
    15  C   -0.006097   0.002672   0.000104  -0.000075   0.000000   0.000000
    16  C    0.403239   0.404092  -0.076307  -0.076448  -0.000007   0.000000
    17  C    0.000000  -0.000016   0.000000   0.000000  -0.049414  -0.046581
    18  C    0.000000   0.000000   0.000000   0.000000   0.000001  -0.000015
    19  C    5.420794  -0.056852   0.317303  -0.034123   0.000000   0.000000
    20  C   -0.056852   5.425330  -0.034075   0.316089  -0.000006   0.000000
    21  C    0.317303  -0.034075   5.037637  -0.115282   0.000000   0.000000
    22  C   -0.034123   0.316089  -0.115282   5.034712   0.000000   0.000000
    23  H    0.000000  -0.000006   0.000000   0.000000   0.508124  -0.025338
    24  H    0.000000   0.000000   0.000000   0.000000  -0.025338   0.498156
    25  H    0.000106   0.004115  -0.000004   0.000026   0.004741   0.000079
    26  H    0.000000   0.000000   0.000000   0.000000   0.000112   0.003153
    27  H    0.000003   0.000000   0.000000   0.000000   0.000000   0.000000
    28  H    0.003329   0.000062   0.000044  -0.000003   0.000000   0.000000
    29  H    0.000000   0.000000   0.000000   0.000000   0.003193  -0.003072
    30  H    0.000000  -0.000017   0.000000   0.000000  -0.002886   0.003113
    31  H    0.000000   0.000000   0.000000   0.000000  -0.000087  -0.000334
    32  H    0.374437   0.003797  -0.023156   0.000143   0.000000   0.000000
    33  H    0.003910   0.373435   0.000124  -0.023245  -0.000037   0.000000
    34  H   -0.069789  -0.000898   0.395172   0.004974   0.000000   0.000000
    35  H   -0.000924  -0.070991   0.005048   0.395292   0.000000   0.000000
    36  H    0.000000   0.000000   0.000000   0.000000   0.000000   0.000000
              25         26         27         28         29         30
     1  O    0.000000  -0.000004   0.015941   0.000002   0.000000   0.000000
     2  O    0.000000   0.000237   0.000000   0.000000   0.000000   0.000000
     3  O    0.000000   0.017440   0.000000   0.000000   0.000000   0.000000
     4  N   -0.007163  -0.035867  -0.000015   0.000000  -0.000777  -0.002091
     5  N    0.000001   0.000000   0.000000   0.000001   0.000000   0.000000
     6  C   -0.046328   0.003063   0.003175  -0.000147  -0.000021   0.001845
     7  C    0.004094  -0.000454  -0.057335   0.004462   0.000003  -0.000028
     8  C    0.001781  -0.002376   0.000001   0.000000  -0.039986  -0.040202
     9  C    0.386602  -0.000062   0.000074   0.004013  -0.000003   0.002082
    10  C   -0.041545   0.000000   0.003200  -0.043602   0.000001  -0.000011
    11  C   -0.000014   0.367602  -0.000063   0.000000   0.002288  -0.000089
    12  C   -0.000005   0.002703   0.000975  -0.000018   0.000000  -0.000002
    13  C    0.000003  -0.052094   0.001325   0.000001  -0.000060   0.000015
    14  C   -0.000334   0.000001   0.376134  -0.038040   0.000000  -0.000002
    15  C    0.004002   0.000000  -0.027393   0.390681   0.000000   0.000000
    16  C   -0.006047   0.000000  -0.000068  -0.006295   0.000000  -0.000002
    17  C   -0.000701   0.000144   0.000000   0.000000   0.368501   0.367285
    18  C    0.000000   0.000406   0.000004   0.000000   0.000000   0.000000
    19  C    0.000106   0.000000   0.000003   0.003329   0.000000   0.000000
    20  C    0.004115   0.000000   0.000000   0.000062   0.000000  -0.000017
    21  C   -0.000004   0.000000   0.000000   0.000044   0.000000   0.000000
    22  C    0.000026   0.000000   0.000000  -0.000003   0.000000   0.000000
    23  H    0.004741   0.000112   0.000000   0.000000   0.003193  -0.002886
    24  H    0.000079   0.003153   0.000000   0.000000  -0.003072   0.003113
    25  H    0.497011   0.000002   0.000003  -0.000044   0.000000   0.001059
    26  H    0.000002   0.441524   0.000000   0.000000   0.000408   0.000000
    27  H    0.000003   0.000000   0.460373  -0.003028   0.000000   0.000000
    28  H   -0.000044   0.000000  -0.003028   0.489225   0.000000   0.000000
    29  H    0.000000   0.000408   0.000000   0.000000   0.502458  -0.025171
    30  H    0.001059   0.000000   0.000000   0.000000  -0.025171   0.506725
    31  H    0.000073  -0.000019   0.000000   0.000000  -0.023655  -0.024428
    32  H   -0.000001   0.000000   0.000002   0.003173   0.000000   0.000000
    33  H    0.003579   0.000000   0.000000  -0.000001  -0.000001   0.000297
    34  H    0.000000   0.000000   0.000000   0.000003   0.000000   0.000000
    35  H    0.000003   0.000000   0.000000   0.000000   0.000000   0.000000
    36  H    0.000000  -0.000018   0.000000   0.000000   0.000000   0.000000
              31         32         33         34         35         36
     1  O    0.000000   0.000000   0.000000   0.000000   0.000000   0.000125
     2  O    0.000000   0.000000   0.000000   0.000000   0.000000   0.240276
     3  O    0.000000   0.000000   0.000000   0.000000   0.000000   0.005414
     4  N    0.002715   0.000000  -0.000001   0.000000   0.000000   0.000000
     5  N    0.000000   0.002535   0.002567  -0.045362  -0.045821   0.000000
     6  C   -0.000017  -0.000005  -0.000035   0.000000   0.000000   0.000000
     7  C    0.000000   0.000001   0.000001   0.000000   0.000000   0.000004
     8  C   -0.035846   0.000000  -0.000012   0.000000   0.000000   0.000000
     9  C   -0.000015   0.000052   0.002778   0.000000  -0.000001   0.000000
    10  C    0.000000  -0.004763  -0.004766  -0.000043  -0.000043   0.000000
    11  C   -0.000004   0.000000   0.000000   0.000000   0.000000  -0.000291
    12  C    0.000000   0.000000   0.000000   0.000000   0.000000  -0.000130
    13  C    0.000001   0.000000   0.000000   0.000000   0.000000   0.012530
    14  C    0.000000  -0.000026  -0.000006   0.000000   0.000000   0.000000
    15  C    0.000000   0.002957   0.000037  -0.000001   0.000000   0.000000
    16  C    0.000000  -0.042198  -0.043383   0.004124   0.004183   0.000000
    17  C    0.351173   0.000000   0.000048   0.000000   0.000000   0.000000
    18  C    0.000000   0.000000   0.000000   0.000000   0.000000  -0.030982
    19  C    0.000000   0.374437   0.003910  -0.069789  -0.000924   0.000000
    20  C    0.000000   0.003797   0.373435  -0.000898  -0.070991   0.000000
    21  C    0.000000  -0.023156   0.000124   0.395172   0.005048   0.000000
    22  C    0.000000   0.000143  -0.023245   0.004974   0.395292   0.000000
    23  H   -0.000087   0.000000  -0.000037   0.000000   0.000000   0.000000
    24  H   -0.000334   0.000000   0.000000   0.000000   0.000000   0.000000
    25  H    0.000073  -0.000001   0.003579   0.000000   0.000003   0.000000
    26  H   -0.000019   0.000000   0.000000   0.000000   0.000000  -0.000018
    27  H    0.000000   0.000002   0.000000   0.000000   0.000000   0.000000
    28  H    0.000000   0.003173  -0.000001   0.000003   0.000000   0.000000
    29  H   -0.023655   0.000000  -0.000001   0.000000   0.000000   0.000000
    30  H   -0.024428   0.000000   0.000297   0.000000   0.000000   0.000000
    31  H    0.527273   0.000000  -0.000002   0.000000   0.000000   0.000000
    32  H    0.000000   0.486516  -0.000030  -0.001217   0.000007   0.000000
    33  H   -0.000002  -0.000030   0.498730   0.000007  -0.001213   0.000000
    34  H    0.000000  -0.001217   0.000007   0.499374   0.000006   0.000000
    35  H    0.000000   0.000007  -0.001213   0.000006   0.503861   0.000000
    36  H    0.000000   0.000000   0.000000   0.000000   0.000000   0.409240
 Mulliken charges:
               1
     1  O   -0.493746
     2  O   -0.537641
     3  O   -0.510715
     4  N   -0.836308
     5  N   -0.523433
     6  C    0.383863
     7  C   -0.062807
     8  C   -0.219867
     9  C   -0.198473
    10  C   -0.001632
    11  C    0.217243
    12  C    0.404235
    13  C   -0.193657
    14  C   -0.162883
    15  C   -0.189142
    16  C    0.035401
    17  C   -0.558207
    18  C    0.648540
    19  C   -0.234880
    20  C   -0.238988
    21  C    0.070469
    22  C    0.072333
    23  H    0.225482
    24  H    0.228286
    25  H    0.194906
    26  H    0.254099
    27  H    0.226693
    28  H    0.196182
    29  H    0.215894
    30  H    0.212510
    31  H    0.203171
    32  H    0.197776
    33  H    0.187218
    34  H    0.213651
    35  H    0.210594
    36  H    0.363832
 Sum of Mulliken charges =   0.00000
 Mulliken charges with hydrogens summed into heavy atoms:
               1
     1  O   -0.493746
     2  O   -0.173809
     3  O   -0.510715
     4  N   -0.836308
     5  N   -0.523433
     6  C    0.383863
     7  C   -0.062807
     8  C    0.233902
     9  C   -0.003567
    10  C   -0.001632
    11  C    0.471342
    12  C    0.404235
    13  C   -0.193657
    14  C    0.063810
    15  C    0.007040
    16  C    0.035401
    17  C    0.073367
    18  C    0.648540
    19  C   -0.037104
    20  C   -0.051770
    21  C    0.284120
    22  C    0.282927
 Electronic spatial extent (au):  <R**2>=           8562.8649
 Charge=              0.0000 electrons
 Dipole moment (field-independent basis, Debye):
    X=              1.2130    Y=              4.1247    Z=             -1.1319  Tot=              4.4458
 Quadrupole moment (field-independent basis, Debye-Ang):
   XX=           -149.9975   YY=           -116.3681   ZZ=           -128.9302
   XY=             -7.6882   XZ=              4.4055   YZ=              0.8883
 Traceless Quadrupole moment (field-independent basis, Debye-Ang):
   XX=            -18.2322   YY=             15.3971   ZZ=              2.8351
   XY=             -7.6882   XZ=              4.4055   YZ=              0.8883
 Octapole moment (field-independent basis, Debye-Ang**2):
  XXX=           -227.0774  YYY=             39.8725  ZZZ=             -0.6339  XYY=             38.0033
  XXY=            -47.0162  XXZ=            -21.5094  XZZ=            -27.6449  YZZ=              3.2661
  YYZ=             -6.2809  XYZ=             11.5365
 Hexadecapole moment (field-independent basis, Debye-Ang**3):
 XXXX=          -9821.2013 YYYY=          -1874.4228 ZZZZ=           -242.4367 XXXY=            240.2093
 XXXZ=            109.9307 YYYX=            -92.4268 YYYZ=             -2.7698 ZZZX=              1.6617
 ZZZY=             -3.4241 XXYY=          -1781.3047 XXZZ=          -1554.7191 YYZZ=           -365.8619
 XXYZ=             73.3325 YYXZ=             18.1137 ZZXY=              8.2237
 N-N= 1.654096680576D+03 E-N=-5.601597788191D+03  KE= 9.779112368317D+02
 PrsmSu:  requested number of processors reduced to:   9 ShMem   1 Linda.
 Calling FoFJK, ICntrl=      2127 FMM=F ISym2X=0 I1Cent= 0 IOpClX= 0 NMat=1 NMatS=1 NMatT=0.
 ***** Axes restored to original set *****
 -------------------------------------------------------------------
 Center     Atomic                   Forces (Hartrees/Bohr)
 Number     Number              X              Y              Z
 -------------------------------------------------------------------
      1        8          -0.000445522   -0.004134965   -0.000147755
      2        8           0.006103023   -0.007113162    0.000576411
      3        8          -0.002879485    0.002861070   -0.003191108
      4        7          -0.000383467   -0.006417926    0.002354436
      5        7           0.000069352   -0.000878172   -0.000625978
      6        6          -0.000545810   -0.000551896   -0.000529394
      7        6           0.004602399    0.005645504   -0.001205081
      8        6           0.001613633    0.007889878   -0.013693196
      9        6           0.004197523    0.004462838   -0.001055709
     10        6          -0.004651348   -0.000933697    0.000294948
     11        6          -0.012345482   -0.001462374    0.000793544
     12        6          -0.005502633   -0.001595222   -0.000136940
     13        6           0.004042426    0.006230627   -0.002798473
     14        6          -0.006300405   -0.006338701    0.001884588
     15        6           0.004633753   -0.004802725    0.001563523
     16        6           0.003463352    0.001669556    0.000517917
     17        6           0.001800673    0.005035919    0.008676146
     18        6           0.015434499    0.008476382    0.004082470
     19        6           0.000147314   -0.009210149   -0.003856190
     20        6          -0.002567772    0.006880257    0.003194436
     21        6           0.005042811   -0.007280738   -0.002705744
     22        6           0.002245473    0.010828573    0.003921859
     23        1          -0.002160425   -0.000032482    0.002609738
     24        1           0.002768011   -0.000254654    0.002220284
     25        1          -0.001559481   -0.005065192    0.000977295
     26        1           0.001567913   -0.005608777    0.001907823
     27        1           0.001305732    0.004886450   -0.001133219
     28        1          -0.002906167    0.003027130   -0.000799351
     29        1           0.001733996   -0.000656720   -0.001531555
     30        1          -0.001036279   -0.000181703   -0.001660773
     31        1          -0.000499159   -0.001093311    0.000347517
     32        1           0.001212387    0.004666190    0.001232740
     33        1           0.002659060   -0.003673472   -0.001526313
     34        1          -0.004006441    0.002279426    0.000844367
     35        1          -0.003382750   -0.003713949   -0.001137702
     36        1          -0.013470705   -0.003839814   -0.000265561
 -------------------------------------------------------------------
 Cartesian Forces:  Max     0.015434499 RMS     0.004516501

 GradGradGradGradGradGradGradGradGradGradGradGradGradGradGradGradGradGrad
 Berny optimization.
 FormGI is forming the generalized inverse of G from B-inverse, IUseBI=4.
 Internal  Forces:  Max     0.012728215 RMS     0.002816678
 Search for a local minimum.
 Step number   1 out of a maximum of  199
 All quantities printed in internal units (Hartrees-Bohrs-Radians)
 Mixed Optimization -- RFO/linear search
 Second derivative matrix not updated -- first step.
 ITU=  0
     Eigenvalues ---    0.00447   0.00755   0.01048   0.01062   0.01113
     Eigenvalues ---    0.01308   0.01452   0.01494   0.01602   0.01663
     Eigenvalues ---    0.01749   0.01761   0.01846   0.01906   0.02050
     Eigenvalues ---    0.02088   0.02098   0.02126   0.02140   0.02151
     Eigenvalues ---    0.02185   0.02194   0.02195   0.02245   0.02250
     Eigenvalues ---    0.02265   0.02268   0.02347   0.02380   0.04082
     Eigenvalues ---    0.05336   0.05538   0.05728   0.09634   0.12931
     Eigenvalues ---    0.15991   0.15991   0.15995   0.15997   0.15998
     Eigenvalues ---    0.15999   0.15999   0.16000   0.16000   0.16000
     Eigenvalues ---    0.16000   0.16000   0.21929   0.22000   0.22427
     Eigenvalues ---    0.22816   0.23418   0.23508   0.23880   0.24618
     Eigenvalues ---    0.24969   0.24991   0.24992   0.24992   0.24996
     Eigenvalues ---    0.24998   0.24999   0.25000   0.25000   0.29977
     Eigenvalues ---    0.33107   0.33777   0.33882   0.33890   0.33963
     Eigenvalues ---    0.34045   0.34540   0.34596   0.34676   0.34691
     Eigenvalues ---    0.34724   0.34825   0.34836   0.34846   0.34950
     Eigenvalues ---    0.35043   0.35643   0.35800   0.39189   0.41951
     Eigenvalues ---    0.42243   0.43272   0.43409   0.44098   0.45105
     Eigenvalues ---    0.45816   0.45993   0.46973   0.48299   0.49138
     Eigenvalues ---    0.50507   0.52664   0.53672   0.53786   0.55044
     Eigenvalues ---    0.85376   0.89009
 RFO step:  Lambda=-7.35736942D-03 EMin= 4.47397176D-03
 Linear search not attempted -- first point.
 Iteration  1 RMS(Cart)=  0.08170577 RMS(Int)=  0.00444798
 Iteration  2 RMS(Cart)=  0.00678073 RMS(Int)=  0.00006278
 Iteration  3 RMS(Cart)=  0.00005332 RMS(Int)=  0.00005417
 Iteration  4 RMS(Cart)=  0.00000000 RMS(Int)=  0.00005417
 Variable       Old X    -DE/DX   Delta X   Delta X   Delta X     New X
                                 (Linear)    (Quad)   (Total)
    R1        2.35140   0.00393   0.00000   0.00456   0.00456   2.35596
    R2        2.56331   0.01273   0.00000   0.02339   0.02339   2.58671
    R3        1.86057   0.01270   0.00000   0.02478   0.02478   1.88536
    R4        2.33393   0.00360   0.00000   0.00401   0.00401   2.33794
    R5        2.65185   0.00373   0.00000   0.00886   0.00883   2.66068
    R6        2.77944   0.01179   0.00000   0.03241   0.03241   2.81185
    R7        2.56041   0.00748   0.00000   0.01409   0.01408   2.57449
    R8        2.54611   0.00495   0.00000   0.00898   0.00898   2.55509
    R9        2.54231   0.00585   0.00000   0.01046   0.01046   2.55277
   R10        2.67142  -0.00075   0.00000  -0.00175  -0.00176   2.66966
   R11        2.65030   0.00232   0.00000   0.00500   0.00500   2.65530
   R12        2.80891   0.00114   0.00000   0.00265   0.00266   2.81157
   R13        2.64582  -0.00088   0.00000  -0.00208  -0.00207   2.64375
   R14        2.88010   0.00684   0.00000   0.02227   0.02227   2.90237
   R15        2.07530  -0.00329   0.00000  -0.00951  -0.00951   2.06579
   R16        2.07709  -0.00329   0.00000  -0.00954  -0.00954   2.06755
   R17        2.63830   0.00105   0.00000   0.00241   0.00240   2.64070
   R18        2.05606  -0.00537   0.00000  -0.01502  -0.01502   2.04104
   R19        2.66394   0.00192   0.00000   0.00453   0.00452   2.66846
   R20        2.79225   0.00508   0.00000   0.01428   0.01428   2.80653
   R21        2.59221  -0.00614   0.00000  -0.01208  -0.01206   2.58015
   R22        2.06336  -0.00563   0.00000  -0.01594  -0.01594   2.04742
   R23        2.76189  -0.00202   0.00000  -0.00624  -0.00621   2.75568
   R24        2.79426  -0.00523   0.00000  -0.01474  -0.01474   2.77952
   R25        2.60731   0.00193   0.00000   0.00391   0.00391   2.61122
   R26        2.06179  -0.00514   0.00000  -0.01450  -0.01450   2.04729
   R27        2.05757  -0.00426   0.00000  -0.01195  -0.01195   2.04562
   R28        2.64767   0.00467   0.00000   0.00991   0.00992   2.65759
   R29        2.64934   0.00394   0.00000   0.00832   0.00832   2.65766
   R30        2.07516  -0.00232   0.00000  -0.00671  -0.00671   2.06846
   R31        2.07254  -0.00157   0.00000  -0.00451  -0.00451   2.06803
   R32        2.07392  -0.00124   0.00000  -0.00358  -0.00358   2.07034
   R33        2.62968   0.00031   0.00000   0.00067   0.00068   2.63035
   R34        2.05941  -0.00494   0.00000  -0.01389  -0.01389   2.04552
   R35        2.63132  -0.00017   0.00000  -0.00038  -0.00038   2.63093
   R36        2.05960  -0.00478   0.00000  -0.01343  -0.01343   2.04617
   R37        2.06205  -0.00443   0.00000  -0.01251  -0.01251   2.04954
   R38        2.06429  -0.00494   0.00000  -0.01399  -0.01399   2.05030
    A1        1.83227   0.01080   0.00000   0.06456   0.06456   1.89683
    A2        2.13451  -0.00163   0.00000  -0.00751  -0.00752   2.12698
    A3        2.08722  -0.00233   0.00000  -0.00699  -0.00699   2.08023
    A4        2.06051   0.00395   0.00000   0.01420   0.01418   2.07469
    A5        2.02850   0.00357   0.00000   0.01568   0.01569   2.04419
    A6        2.07008  -0.00075   0.00000  -0.00107  -0.00111   2.06897
    A7        2.12047   0.00327   0.00000   0.01209   0.01205   2.13252
    A8        2.09256  -0.00251   0.00000  -0.01084  -0.01086   2.08169
    A9        2.14224   0.00222   0.00000   0.00833   0.00835   2.15059
   A10        2.06631   0.00322   0.00000   0.01226   0.01225   2.07855
   A11        2.07463  -0.00544   0.00000  -0.02057  -0.02059   2.05404
   A12        1.97239  -0.00237   0.00000  -0.01170  -0.01177   1.96062
   A13        1.89947   0.00086   0.00000  -0.00099  -0.00116   1.89831
   A14        1.85478   0.00172   0.00000   0.01659   0.01660   1.87138
   A15        1.95085  -0.00024   0.00000  -0.00981  -0.00990   1.94095
   A16        1.92395   0.00022   0.00000   0.00306   0.00312   1.92707
   A17        1.85638   0.00004   0.00000   0.00513   0.00512   1.86150
   A18        2.11259   0.00053   0.00000   0.00282   0.00280   2.11539
   A19        2.09492   0.00011   0.00000   0.00081   0.00081   2.09573
   A20        2.07540  -0.00065   0.00000  -0.00372  -0.00371   2.07169
   A21        2.07090   0.00075   0.00000   0.00390   0.00388   2.07478
   A22        2.11206  -0.00268   0.00000  -0.01091  -0.01089   2.10116
   A23        2.10022   0.00193   0.00000   0.00700   0.00702   2.10723
   A24        2.18799  -0.00110   0.00000  -0.00410  -0.00410   2.18389
   A25        2.02177   0.00290   0.00000   0.01623   0.01615   2.03793
   A26        2.07330  -0.00180   0.00000  -0.01185  -0.01193   2.06137
   A27        2.10809   0.00034   0.00000   0.00266   0.00251   2.11060
   A28        2.18943   0.00234   0.00000   0.01046   0.01031   2.19974
   A29        1.98545  -0.00267   0.00000  -0.01258  -0.01262   1.97283
   A30        2.09271   0.00464   0.00000   0.01635   0.01638   2.10910
   A31        1.99357   0.00105   0.00000   0.00482   0.00471   1.99828
   A32        2.19683  -0.00569   0.00000  -0.02138  -0.02148   2.17536
   A33        2.12189  -0.00047   0.00000  -0.00211  -0.00211   2.11978
   A34        2.03735  -0.00047   0.00000  -0.00316  -0.00316   2.03419
   A35        2.12387   0.00094   0.00000   0.00529   0.00529   2.12916
   A36        2.10208  -0.00152   0.00000  -0.00593  -0.00597   2.09611
   A37        2.08573   0.00102   0.00000   0.00440   0.00440   2.09013
   A38        2.09488   0.00050   0.00000   0.00127   0.00127   2.09615
   A39        2.11853  -0.00030   0.00000  -0.00093  -0.00095   2.11758
   A40        2.13221  -0.00235   0.00000  -0.00890  -0.00893   2.12328
   A41        2.03239   0.00266   0.00000   0.00996   0.00995   2.04233
   A42        1.93110  -0.00056   0.00000  -0.00373  -0.00376   1.92734
   A43        1.94998  -0.00169   0.00000  -0.01121  -0.01122   1.93876
   A44        1.91464   0.00063   0.00000   0.00523   0.00524   1.91988
   A45        1.88641   0.00085   0.00000   0.00237   0.00232   1.88873
   A46        1.88973   0.00024   0.00000   0.00359   0.00360   1.89332
   A47        1.89045   0.00061   0.00000   0.00428   0.00430   1.89474
   A48        2.13100   0.00063   0.00000   0.00262   0.00258   2.13358
   A49        1.99503  -0.00399   0.00000  -0.01531  -0.01536   1.97967
   A50        2.15655   0.00337   0.00000   0.01325   0.01321   2.16976
   A51        2.09269  -0.00129   0.00000  -0.00563  -0.00564   2.08705
   A52        2.10759   0.00016   0.00000  -0.00017  -0.00020   2.10739
   A53        2.08275   0.00112   0.00000   0.00559   0.00555   2.08831
   A54        2.08870  -0.00025   0.00000  -0.00120  -0.00120   2.08750
   A55        2.10756   0.00002   0.00000  -0.00006  -0.00006   2.10751
   A56        2.08641   0.00023   0.00000   0.00119   0.00119   2.08759
   A57        2.16008  -0.00189   0.00000  -0.00734  -0.00734   2.15274
   A58        2.02235   0.00250   0.00000   0.01295   0.01294   2.03529
   A59        2.10075  -0.00061   0.00000  -0.00562  -0.00564   2.09512
   A60        2.16400  -0.00279   0.00000  -0.01145  -0.01145   2.15255
   A61        2.02135   0.00290   0.00000   0.01475   0.01474   2.03610
   A62        2.09777  -0.00011   0.00000  -0.00325  -0.00325   2.09451
    D1       -0.00800  -0.00082   0.00000  -0.02557  -0.02561  -0.03361
    D2       -3.11342  -0.00123   0.00000  -0.04268  -0.04264   3.12713
    D3        3.10276  -0.00012   0.00000  -0.00910  -0.00912   3.09365
    D4       -0.05275   0.00022   0.00000   0.00581   0.00592  -0.04683
    D5        0.00898  -0.00008   0.00000  -0.00191  -0.00194   0.00705
    D6        3.13665   0.00026   0.00000   0.01300   0.01310  -3.13343
    D7       -1.45890   0.00109   0.00000   0.04966   0.04968  -1.40923
    D8        0.71921  -0.00025   0.00000   0.02787   0.02790   0.74710
    D9        2.71204   0.00107   0.00000   0.04171   0.04178   2.75382
   D10        1.63558   0.00089   0.00000   0.04203   0.04196   1.67754
[...]
    30  H    0.000000   0.000000   0.000000  -0.002191   0.000000   0.001772
    31  H    0.000000   0.000000   0.000000   0.002538   0.000000  -0.000001
    32  H    0.000000   0.000000   0.000000   0.000000   0.002505  -0.000006
    33  H    0.000000   0.000000   0.000000  -0.000001   0.002565  -0.000042
    34  H    0.000000   0.000000   0.000000   0.000000  -0.044922   0.000000
    35  H    0.000000   0.000000   0.000000   0.000000  -0.045091   0.000000
    36  H    0.000202   0.237716   0.004262   0.000000   0.000000   0.000000
               7          8          9         10         11         12
     1  O   -0.120013   0.000000   0.000002  -0.000009   0.003376   0.631997
     2  O    0.000112   0.000000   0.000000   0.000000   0.003301   0.002074
     3  O   -0.000017   0.000004   0.000000   0.000000   0.002768   0.001975
     4  N   -0.032036   0.248484  -0.049300   0.004117   0.243925  -0.035106
     5  N    0.000000   0.000000  -0.000002   0.000189   0.000000   0.000000
     6  C    0.316950  -0.051879   0.398999  -0.052466  -0.066945   0.000337
     7  C    5.917189   0.001162  -0.052958  -0.032321  -0.012020  -0.005844
     8  C    0.001162   5.198850  -0.003494   0.000181  -0.059707   0.000036
     9  C   -0.052958  -0.003494   5.237846   0.440677   0.002188   0.005367
    10  C   -0.032321   0.000181   0.440677   5.138365  -0.000092  -0.000939
    11  C   -0.012020  -0.059707   0.002188  -0.000092   5.112016  -0.025034
    12  C   -0.005844   0.000036   0.005367  -0.000939  -0.025034   5.186718
    13  C   -0.168763   0.002200  -0.000733  -0.000014   0.312721  -0.063974
    14  C    0.376590  -0.000075  -0.037540  -0.065767  -0.001192  -0.079195
    15  C   -0.078995   0.000000  -0.069308   0.427794   0.000014   0.008709
    16  C    0.000109  -0.000004  -0.073243   0.364298   0.000001  -0.000001
    17  C   -0.000046   0.263529  -0.001865   0.000008   0.000144  -0.000003
    18  C    0.005696  -0.000042  -0.000003   0.000000  -0.096457  -0.038038
    19  C    0.000004   0.000000   0.002482  -0.066994   0.000000   0.000000
    20  C    0.000000   0.000001  -0.004771  -0.067242   0.000000   0.000000
    21  C    0.000000   0.000000  -0.000080   0.004085   0.000000   0.000000
    22  C    0.000000   0.000000   0.000114   0.004096   0.000000   0.000000
    23  H    0.000189   0.367511   0.001346  -0.000019   0.002370   0.000003
    24  H   -0.000063   0.372875   0.000102  -0.000003  -0.000076  -0.000009
    25  H    0.004186   0.001752   0.388962  -0.042357  -0.000018  -0.000007
    26  H   -0.000501  -0.001759  -0.000053   0.000000   0.362528   0.002921
    27  H   -0.059397   0.000000   0.000040   0.003197  -0.000071   0.000854
    28  H    0.004435   0.000000   0.004003  -0.043804   0.000000  -0.000017
    29  H    0.000001  -0.039423   0.000003   0.000000   0.001982   0.000000
    30  H   -0.000030  -0.040048   0.002663   0.000003  -0.000085  -0.000002
    31  H    0.000000  -0.035090  -0.000013   0.000000  -0.000019   0.000000
    32  H    0.000000   0.000000   0.000068  -0.004210   0.000000   0.000000
    33  H    0.000000  -0.000007   0.003038  -0.004357   0.000000   0.000000
    34  H    0.000000   0.000000   0.000000  -0.000045   0.000000   0.000000
    35  H    0.000000   0.000000  -0.000001  -0.000046   0.000000   0.000000
    36  H    0.000005   0.000000   0.000000   0.000000  -0.000287  -0.000069
              13         14         15         16         17         18
     1  O   -0.113305   0.000514   0.000524   0.000000   0.000000  -0.004155
     2  O   -0.093283   0.000000   0.000000   0.000000   0.000000   0.223713
     3  O   -0.114523   0.000000   0.000000   0.000000   0.000000   0.517505
     4  N   -0.015035   0.004975  -0.000243  -0.000030  -0.055186   0.004706
     5  N    0.000000   0.000000  -0.000002  -0.025800   0.000000   0.000000
     6  C   -0.021734  -0.073712  -0.025903   0.004028  -0.000447  -0.000558
     7  C   -0.168763   0.376590  -0.078995   0.000109  -0.000046   0.005696
     8  C    0.002200  -0.000075   0.000000  -0.000004   0.263529  -0.000042
     9  C   -0.000733  -0.037540  -0.069308  -0.073243  -0.001865  -0.000003
    10  C   -0.000014  -0.065767   0.427794   0.364298   0.000008   0.000000
    11  C    0.312721  -0.001192   0.000014   0.000001   0.000144  -0.096457
    12  C   -0.063974  -0.079195   0.008709  -0.000001  -0.000003  -0.038038
    13  C    6.451314   0.014107  -0.000046   0.000000  -0.000060   0.063155
    14  C    0.014107   5.288321   0.394188   0.004269   0.000004   0.000001
    15  C   -0.000046   0.394188   5.231052  -0.068334  -0.000002   0.000000
    16  C    0.000000   0.004269  -0.068334   5.198503   0.000005   0.000000
    17  C   -0.000060   0.000004  -0.000002   0.000005   5.363483   0.000002
    18  C    0.063155   0.000001   0.000000   0.000000   0.000002   4.686524
    19  C    0.000000   0.000084  -0.004111   0.403462   0.000000   0.000000
    20  C    0.000000  -0.000078   0.002392   0.405025  -0.000024   0.000000
    21  C    0.000000   0.000000   0.000102  -0.077226   0.000000   0.000000
    22  C    0.000000   0.000000  -0.000071  -0.077185   0.000000   0.000000
    23  H   -0.000103  -0.000003  -0.000001  -0.000007  -0.049007   0.000000
    24  H    0.000460   0.000001   0.000000   0.000000  -0.043962  -0.000015
    25  H    0.000003  -0.000333   0.004013  -0.005528  -0.000772   0.000000
    26  H   -0.059294   0.000000   0.000000   0.000000   0.000041   0.000720
    27  H    0.001552   0.374959  -0.026863  -0.000064   0.000000   0.000006
    28  H    0.000001  -0.037804   0.392592  -0.005521   0.000000   0.000000
    29  H   -0.000062   0.000000   0.000000   0.000000   0.367502   0.000000
    30  H    0.000016  -0.000003   0.000000  -0.000007   0.366699   0.000000
    31  H    0.000000   0.000000   0.000000   0.000000   0.352065   0.000000
    32  H    0.000000  -0.000021   0.002904  -0.042474   0.000000   0.000000
    33  H    0.000000  -0.000007   0.000046  -0.043480   0.000040   0.000000
    34  H    0.000000   0.000000  -0.000001   0.004248   0.000000   0.000000
    35  H    0.000000   0.000000   0.000000   0.004255   0.000000   0.000000
    36  H    0.011795   0.000000   0.000000   0.000000   0.000000  -0.028581
              19         20         21         22         23         24
     1  O    0.000000   0.000000   0.000000   0.000000   0.000000   0.000000
     2  O    0.000000   0.000000   0.000000   0.000000   0.000000   0.000000
     3  O    0.000000   0.000000   0.000000   0.000000   0.000000  -0.000005
     4  N    0.000000   0.000001   0.000000   0.000000  -0.033372  -0.031211
     5  N   -0.056247  -0.056259   0.419110   0.420302   0.000000   0.000000
     6  C   -0.000083   0.000131   0.000000  -0.000001  -0.002023   0.002711
     7  C    0.000004   0.000000   0.000000   0.000000   0.000189  -0.000063
     8  C    0.000000   0.000001   0.000000   0.000000   0.367511   0.372875
     9  C    0.002482  -0.004771  -0.000080   0.000114   0.001346   0.000102
    10  C   -0.066994  -0.067242   0.004085   0.004096  -0.000019  -0.000003
    11  C    0.000000   0.000000   0.000000   0.000000   0.002370  -0.000076
    12  C    0.000000   0.000000   0.000000   0.000000   0.000003  -0.000009
    13  C    0.000000   0.000000   0.000000   0.000000  -0.000103   0.000460
    14  C    0.000084  -0.000078   0.000000   0.000000  -0.000003   0.000001
    15  C   -0.004111   0.002392   0.000102  -0.000071  -0.000001   0.000000
    16  C    0.403462   0.405025  -0.077226  -0.077185  -0.000007   0.000000
    17  C    0.000000  -0.000024   0.000000   0.000000  -0.049007  -0.043962
    18  C    0.000000   0.000000   0.000000   0.000000   0.000000  -0.000015
    19  C    5.414770  -0.054324   0.317121  -0.032030   0.000000   0.000000
    20  C   -0.054324   5.420531  -0.032082   0.315945  -0.000004   0.000000
    21  C    0.317121  -0.032082   5.031514  -0.111202   0.000000   0.000000
    22  C   -0.032030   0.315945  -0.111202   5.030966   0.000000   0.000000
    23  H    0.000000  -0.000004   0.000000   0.000000   0.505638  -0.024963
    24  H    0.000000   0.000000   0.000000   0.000000  -0.024963   0.490673
    25  H    0.000121   0.003743  -0.000006   0.000023   0.003724   0.000073
    26  H    0.000000   0.000000   0.000000   0.000000   0.000093   0.003033
    27  H    0.000002   0.000000   0.000000   0.000000   0.000000   0.000000
    28  H    0.003078   0.000074   0.000024  -0.000003   0.000000   0.000000
    29  H    0.000000   0.000000   0.000000   0.000000   0.003163  -0.002680
    30  H    0.000000  -0.000009   0.000000   0.000000  -0.003072   0.002995
    31  H    0.000000   0.000000   0.000000   0.000000   0.000197  -0.000499
    32  H    0.376408   0.003758  -0.022808   0.000120   0.000000   0.000000
    33  H    0.003837   0.374979   0.000110  -0.022967  -0.000015   0.000000
    34  H   -0.070741  -0.000893   0.395235   0.004777   0.000000   0.000000
    35  H   -0.000910  -0.071521   0.004807   0.395445   0.000000   0.000000
    36  H    0.000000   0.000000   0.000000   0.000000   0.000000   0.000000
              25         26         27         28         29         30
     1  O    0.000000  -0.000002   0.018586   0.000002   0.000000   0.000000
     2  O    0.000000   0.000291   0.000000   0.000000   0.000000   0.000000
     3  O    0.000000   0.023336   0.000000   0.000000   0.000000   0.000000
     4  N   -0.006713  -0.033610  -0.000013   0.000000  -0.000481  -0.002191
     5  N    0.000001   0.000000   0.000000   0.000001   0.000000   0.000000
     6  C   -0.045774   0.003029   0.003183  -0.000157   0.000025   0.001772
     7  C    0.004186  -0.000501  -0.059397   0.004435   0.000001  -0.000030
     8  C    0.001752  -0.001759   0.000000   0.000000  -0.039423  -0.040048
     9  C    0.388962  -0.000053   0.000040   0.004003   0.000003   0.002663
    10  C   -0.042357   0.000000   0.003197  -0.043804   0.000000   0.000003
    11  C   -0.000018   0.362528  -0.000071   0.000000   0.001982  -0.000085
    12  C   -0.000007   0.002921   0.000854  -0.000017   0.000000  -0.000002
    13  C    0.000003  -0.059294   0.001552   0.000001  -0.000062   0.000016
    14  C   -0.000333   0.000000   0.374959  -0.037804   0.000000  -0.000003
    15  C    0.004013   0.000000  -0.026863   0.392592   0.000000   0.000000
    16  C   -0.005528   0.000000  -0.000064  -0.005521   0.000000  -0.000007
    17  C   -0.000772   0.000041   0.000000   0.000000   0.367502   0.366699
    18  C    0.000000   0.000720   0.000006   0.000000   0.000000   0.000000
    19  C    0.000121   0.000000   0.000002   0.003078   0.000000   0.000000
    20  C    0.003743   0.000000   0.000000   0.000074   0.000000  -0.000009
    21  C   -0.000006   0.000000   0.000000   0.000024   0.000000   0.000000
    22  C    0.000023   0.000000   0.000000  -0.000003   0.000000   0.000000
    23  H    0.003724   0.000093   0.000000   0.000000   0.003163  -0.003072
    24  H    0.000073   0.003033   0.000000   0.000000  -0.002680   0.002995
    25  H    0.495086   0.000002   0.000003  -0.000043  -0.000003   0.001503
    26  H    0.000002   0.440146   0.000000   0.000000   0.000254   0.000001
    27  H    0.000003   0.000000   0.459103  -0.002862   0.000000   0.000000
    28  H   -0.000043   0.000000  -0.002862   0.487133   0.000000   0.000000
    29  H   -0.000003   0.000254   0.000000   0.000000   0.502204  -0.025180
    30  H    0.001503   0.000001   0.000000   0.000000  -0.025180   0.505875
    31  H    0.000082  -0.000010   0.000000   0.000000  -0.023356  -0.024495
    32  H    0.000000   0.000000   0.000001   0.001518   0.000000   0.000000
    33  H    0.001719   0.000000   0.000000  -0.000001  -0.000001   0.000476
    34  H    0.000000   0.000000   0.000000   0.000002   0.000000   0.000000
    35  H    0.000003   0.000000   0.000000   0.000000   0.000000   0.000000
    36  H    0.000000  -0.000016   0.000000   0.000000   0.000000   0.000000
              31         32         33         34         35         36
     1  O    0.000000   0.000000   0.000000   0.000000   0.000000   0.000202
     2  O    0.000000   0.000000   0.000000   0.000000   0.000000   0.237716
     3  O    0.000000   0.000000   0.000000   0.000000   0.000000   0.004262
     4  N    0.002538   0.000000  -0.000001   0.000000   0.000000   0.000000
     5  N    0.000000   0.002505   0.002565  -0.044922  -0.045091   0.000000
     6  C   -0.000001  -0.000006  -0.000042   0.000000   0.000000   0.000000
     7  C    0.000000   0.000000   0.000000   0.000000   0.000000   0.000005
     8  C   -0.035090   0.000000  -0.000007   0.000000   0.000000   0.000000
     9  C   -0.000013   0.000068   0.003038   0.000000  -0.000001   0.000000
    10  C    0.000000  -0.004210  -0.004357  -0.000045  -0.000046   0.000000
    11  C   -0.000019   0.000000   0.000000   0.000000   0.000000  -0.000287
    12  C    0.000000   0.000000   0.000000   0.000000   0.000000  -0.000069
    13  C    0.000000   0.000000   0.000000   0.000000   0.000000   0.011795
    14  C    0.000000  -0.000021  -0.000007   0.000000   0.000000   0.000000
    15  C    0.000000   0.002904   0.000046  -0.000001   0.000000   0.000000
    16  C    0.000000  -0.042474  -0.043480   0.004248   0.004255   0.000000
    17  C    0.352065   0.000000   0.000040   0.000000   0.000000   0.000000
    18  C    0.000000   0.000000   0.000000   0.000000   0.000000  -0.028581
    19  C    0.000000   0.376408   0.003837  -0.070741  -0.000910   0.000000
    20  C    0.000000   0.003758   0.374979  -0.000893  -0.071521   0.000000
    21  C    0.000000  -0.022808   0.000110   0.395235   0.004807   0.000000
    22  C    0.000000   0.000120  -0.022967   0.004777   0.395445   0.000000
    23  H    0.000197   0.000000  -0.000015   0.000000   0.000000   0.000000
    24  H   -0.000499   0.000000   0.000000   0.000000   0.000000   0.000000
    25  H    0.000082   0.000000   0.001719   0.000000   0.000003   0.000000
    26  H   -0.000010   0.000000   0.000000   0.000000   0.000000  -0.000016
    27  H    0.000000   0.000001   0.000000   0.000000   0.000000   0.000000
    28  H    0.000000   0.001518  -0.000001   0.000002   0.000000   0.000000
    29  H   -0.023356   0.000000  -0.000001   0.000000   0.000000   0.000000
    30  H   -0.024495   0.000000   0.000476   0.000000   0.000000   0.000000
    31  H    0.524393   0.000000  -0.000002   0.000000   0.000000   0.000000
    32  H    0.000000   0.483698  -0.000029  -0.001156   0.000006   0.000000
    33  H   -0.000002  -0.000029   0.495018   0.000007  -0.001142   0.000000
    34  H    0.000000  -0.001156   0.000007   0.498485   0.000012   0.000000
    35  H    0.000000   0.000006  -0.001142   0.000012   0.501525   0.000000
    36  H    0.000000   0.000000   0.000000   0.000000   0.000000   0.413577
 Mulliken charges:
               1
     1  O   -0.492222
     2  O   -0.540206
     3  O   -0.516914
     4  N   -0.825785
     5  N   -0.524200
     6  C    0.372223
     7  C   -0.063625
     8  C   -0.225058
     9  C   -0.194534
    10  C   -0.006326
    11  C    0.214669
    12  C    0.407247
    13  C   -0.206394
    14  C   -0.162282
    15  C   -0.190452
    16  C    0.030702
    17  C   -0.562147
    18  C    0.665821
    19  C   -0.235929
    20  C   -0.239371
    21  C    0.071296
    22  C    0.071671
    23  H    0.228355
    24  H    0.230563
    25  H    0.196553
    26  H    0.258849
    27  H    0.227783
    28  H    0.197348
    29  H    0.216053
    30  H    0.213121
    31  H    0.204210
    32  H    0.199718
    33  H    0.190216
    34  H    0.214992
    35  H    0.212659
    36  H    0.361396
 Sum of Mulliken charges =   0.00000
 Mulliken charges with hydrogens summed into heavy atoms:
               1
     1  O   -0.492222
     2  O   -0.178810
     3  O   -0.516914
     4  N   -0.825785
     5  N   -0.524200
     6  C    0.372223
     7  C   -0.063625
     8  C    0.233860
     9  C    0.002019
    10  C   -0.006326
    11  C    0.473518
    12  C    0.407247
    13  C   -0.206394
    14  C    0.065501
    15  C    0.006896
    16  C    0.030702
    17  C    0.071237
    18  C    0.665821
    19  C   -0.036211
    20  C   -0.049155
    21  C    0.286288
    22  C    0.284330
 Electronic spatial extent (au):  <R**2>=           8530.0734
 Charge=              0.0000 electrons
 Dipole moment (field-independent basis, Debye):
    X=              1.3221    Y=              4.1165    Z=             -0.6016  Tot=              4.3653
 Quadrupole moment (field-independent basis, Debye-Ang):
   XX=           -150.2007   YY=           -117.1738   ZZ=           -127.5142
   XY=             -7.0065   XZ=              0.0580   YZ=              3.1094
 Traceless Quadrupole moment (field-independent basis, Debye-Ang):
   XX=            -18.5711   YY=             14.4557   ZZ=              4.1154
   XY=             -7.0065   XZ=              0.0580   YZ=              3.1094
 Octapole moment (field-independent basis, Debye-Ang**2):
  XXX=           -225.4684  YYY=             40.7333  ZZZ=             -0.3368  XYY=             30.6870
  XXY=            -47.7787  XXZ=              3.3043  XZZ=            -18.9912  YZZ=              2.8304
  YYZ=             -6.6529  XYZ=             11.9726
 Hexadecapole moment (field-independent basis, Debye-Ang**3):
 XXXX=          -9757.6185 YYYY=          -1845.4106 ZZZZ=           -279.9336 XXXY=            271.0012
 XXXZ=            -93.5780 YYYX=            -85.9326 YYYZ=             -5.5352 ZZZX=             -4.9932
 ZZZY=             -2.8477 XXYY=          -1796.4983 XXZZ=          -1523.4717 YYZZ=           -359.7485
 XXYZ=            125.3042 YYXZ=             14.8257 ZZXY=              8.7041
 N-N= 1.653872127377D+03 E-N=-5.601252586424D+03  KE= 9.778025543039D+02
 1\1\GINC-NODE046\FOpt\RB3LYP\3-21G\C17H14N2O3\SUPERCOMPUTO1\06-Jul-202
 0\0\\# opt b3lyp/3-21g geom=connectivity\\Title Card Required\\0,1\O,6
 .4039818713,5.8794856605,7.8159892564\O,3.9214383588,6.9600656477,7.51
 14611414\O,3.7727377641,9.1810919537,7.0067445279\N,7.8247874376,9.685
 9028715,6.9905026352\N,15.2721086043,8.5217426607,7.3863701875\C,8.743
 3675,8.6515933842,7.2478421401\C,8.2450212884,7.3604524867,7.520664255
 3\C,8.2727459564,11.0853879796,6.7420619452\C,10.1327911901,8.86327255
 08,7.2277634746\C,11.0199259979,7.8124263081,7.4672793835\C,6.49306430
 13,9.4168824457,7.0221965445\C,6.7860562367,7.0380070647,7.5645401707\
 C,5.9402957732,8.1945979731,7.2855504724\C,9.1456331328,6.315842094,7.
 7605541133\C,10.5129671252,6.5241451152,7.7345832881\C,12.4855818061,8
 .0577907086,7.4415144184\C,8.6058860248,11.8261094743,8.0504763069\C,4
 .4700490803,8.1878131712,7.2485729877\C,13.3615857597,7.1552301553,6.8
 178049822\C,13.0465340193,9.1973147187,8.0399357703\C,14.7285097784,7.
 4252504811,6.8142422085\C,14.4260481427,9.3855445732,7.9881717875\H,9.
 1309767578,11.0600482646,6.0661066933\H,7.4547973482,11.5879256956,6.2
 198412567\H,10.5365030813,9.8400551656,7.0018525164\H,5.8192130372,10.
 2409518887,6.8172657055\H,8.7128615495,5.3455485962,7.9719114732\H,11.
 1988283191,5.7129421055,7.9451578581\H,7.7203553046,11.8744705048,8.69
 10138705\H,9.4016373272,11.3138429482,8.59817706\H,8.9334075637,12.846
 4913662,7.8254116685\H,12.9775410999,6.270819588,6.3250139897\H,12.417
 2496167,9.908786856,8.5604801987\H,15.4171706873,6.7416615006,6.330089
 8465\H,14.8749589366,10.2568828971,8.4523623644\H,2.9303822217,7.06062
 3144,7.462493501\\Version=ES64L-G09RevD.01\State=1-A\HF=-985.9811654\R
 MSD=3.131e-09\RMSF=5.706e-06\Dipole=0.5078426,1.6195822,-0.2619029\Qua
 drupole=-13.7066329,10.7322064,2.9744265,-5.4650594,-0.069548,2.101038
 7\PG=C01 [X(C17H14N2O3)]\\@


      SCIENCE SANS CONSCIENCE N'EST QUE RUINE DE L'AME.

                                                  -- RABELAIS
 Job cpu time:       0 days  0 hours 40 minutes 11.9 seconds.
 File lengths (MBytes):  RWF=     34 Int=      0 D2E=      0 Chk=      5 Scr=      1
 Normal termination of Gaussian 09 at Mon Jul  6 11:19:52 2020.
