 Entering Gaussian System, Link 0=g09
 Input=temafloxacina.gjf
 Output=temafloxacina.log
 Initial command:
 /usr/local/cluster_programs/g09/l1.exe "/tmp/scratch/63951.prometeo/Gau-27092.inp" -scrdir="/tmp/scratch/63951.prometeo/"
 Entering Link 1 = /usr/local/cluster_programs/g09/l1.exe PID=     27093.
  
 Copyright (c) 1988,1990,1992,1993,1995,1998,2003,2009,2013,
            Gaussian, Inc.  All Rights Reserved.
  
 This is part of the Gaussian(R) 09 program.  It is based on
 the Gaussian(R) 03 system (copyright 2003, Gaussian, Inc.),
 the Gaussian(R) 98 system (copyright 1998, Gaussian, Inc.),
 the Gaussian(R) 94 system (copyright 1995, Gaussian, Inc.),
 the Gaussian 92(TM) system (copyright 1992, Gaussian, Inc.),
 the Gaussian 90(TM) system (copyright 1990, Gaussian, Inc.),
 the Gaussian 88(TM) system (copyright 1988, Gaussian, Inc.),
 the Gaussian 86(TM) system (copyright 1986, Carnegie Mellon
 University), and the Gaussian 82(TM) system (copyright 1983,
 Carnegie Mellon University). Gaussian is a federally registered
 trademark of Gaussian, Inc.
  
 This software contains proprietary and confidential information,
 including trade secrets, belonging to Gaussian, Inc.
  
 This software is provided under written license and may be
 used, copied, transmitted, or stored only in accord with that
 written license.
  
 The following legend is applicable only to US Government
 contracts under FAR:
  
                    RESTRICTED RIGHTS LEGEND
  
 Use, reproduction and disclosure by the US Government is
 subject to restrictions as set forth in subparagraphs (a)
 and (c) of the Commercial Computer Software - Restricted
 Rights clause in FAR 52.227-19.
  
 Gaussian, Inc.
 340 Quinnipiac St., Bldg. 40, Wallingford CT 06492
  
  
 ---------------------------------------------------------------
 Warning -- This program may not be used in any manner that
 competes with the business of Gaussian, Inc. or will provide
 assistance to any competitor of Gaussian, Inc.  The licensee
 of this program is prohibited from giving any competitor of
 Gaussian, Inc. access to this program.  By using this program,
 the user acknowledges that Gaussian, Inc. is engaged in the
 business of creating and licensing software in the field of
 computational chemistry and represents and warrants to the
 licensee that it is not a competitor of Gaussian, Inc. and that
 it will not use this program in any manner prohibited above.
 ---------------------------------------------------------------
  

 Cite this work as:
 Gaussian 09, Revision D.01,
 M. J. Frisch, G. W. Trucks, H. B. Schlegel, G. E. Scuseria, 
 M. A. Robb, J. R. Cheeseman, G. Scalmani, V. Barone, B. Mennucci, 
 G. A. Petersson, H. Nakatsuji, M. Caricato, X. Li, H. P. Hratchian, 
 A. F. Izmaylov, J. Bloino, G. Zheng, J. L. Sonnenberg, M. Hada, 
 M. Ehara, K. Toyota, R. Fukuda, J. Hasegawa, M. Ishida, T. Nakajima, 
 Y. Honda, O. Kitao, H. Nakai, T. Vreven, J. A. Montgomery, Jr., 
 J. E. Peralta, F. Ogliaro, M. Bearpark, J. J. Heyd, E. Brothers, 
 K. N. Kudin, V. N. Staroverov, T. Keith, R. Kobayashi, J. Normand, 
 K. Raghavachari, A. Rendell, J. C. Burant, S. S. Iyengar, J. Tomasi, 
 M. Cossi, N. Rega, J. M. Millam, M. Klene, J. E. Knox, J. B. Cross, 
 V. Bakken, C. Adamo, J. Jaramillo, R. Gomperts, R. E. Stratmann, 
 O. Yazyev, A. J. Austin, R. Cammi, C. Pomelli, J. W. Ochterski, 
 R. L. Martin, K. Morokuma, V. G. Zakrzewski, G. A. Voth, 
 P. Salvador, J. J. Dannenberg, S. Dapprich, A. D. Daniels, 
 O. Farkas, J. B. Foresman, J. V. Ortiz, J. Cioslowski, 
 and D. J. Fox, Gaussian, Inc., Wallingford CT, 2013.
 
 ******************************************
 Gaussian 09:  ES64L-G09RevD.01 24-Apr-2013
                 6-Jul-2020 
 ******************************************
 %nprocshared=20
 Will use up to   20 processors via shared memory.
 -----------------------------------
 # opt b3lyp/3-21g geom=connectivity
 -----------------------------------
 1/14=-1,18=20,19=15,26=3,38=1,57=2/1,3;
 2/9=110,12=2,17=6,18=5,40=1/2;
 3/5=5,11=2,16=1,25=1,30=1,71=1,74=-5/1,2,3;
 4//1;
 5/5=2,38=5/2;
 6/7=2,8=2,9=2,10=2,28=1/1;
 7//1,2,3,16;
 1/14=-1,18=20,19=15,26=3/3(2);
 2/9=110/2;
 99//99;
 2/9=110/2;
 3/5=5,11=2,16=1,25=1,30=1,71=1,74=-5/1,2,3;
 4/5=5,16=3,69=1/1;
 5/5=2,38=5/2;
 7//1,2,3,16;
 1/14=-1,18=20,19=15,26=3/3(-5);
 2/9=110/2;
 6/7=2,8=2,9=2,10=2,19=2,28=1/1;
 99/9=1/99;
 -------------------
 Title Card Required
 -------------------
 Symbolic Z-matrix:
 Charge =  0 Multiplicity = 1
 N                     7.81743   5.08581   8.183 
 C                     9.1671    4.83994   8.67134 
 C                     9.23888   4.92806   10.1871 
 N                     8.25326   4.00137   10.7468 
 C                     6.83853   4.17505   8.76806 
 C                     6.88842   4.29604   10.2972 
 H                     8.28476   3.98794   11.7767 
 H                     9.85923   5.54376   8.1961 
 H                     9.45434   3.80853   8.3835 
 H                     7.06317   3.12906   8.47552 
 H                     5.83254   4.43224   8.4159 
 H                     6.60879   5.34904   10.5309 
 H                     10.2456   4.6299    10.5185 
 H                     9.08306   5.98599   10.4951 
 O                     5.98097   8.87397   3.34305 
 O                     5.99686   11.6034   2.86625 
 O                     7.31204   12.8854   4.21645 
 N                     8.17611   9.75929   6.72078 
 C                     8.00404   7.4193    7.45164 
 C                     7.69289   8.44166   6.54583 
 C                     6.85919   8.18547   5.43786 
 C                     7.81996   10.7392   5.84485 
 C                     7.03395   10.5501   4.73468 
 C                     6.56136   9.19752   4.39708 
 C                     6.34246   6.88951   5.28747 
 C                     7.49064   6.11789   7.31158 
 C                     5.91985   3.33702   10.9656 
 C                     6.63679   5.90835   6.19711 
 C                     6.81204   11.7858   3.942 
 H                     8.23199   11.7325   6.03248 
 H                     5.73819   6.66547   4.41009 
 H                     6.178     2.29953   10.7089 
 H                     5.96946   3.44081   12.0589 
 H                     4.88042   3.53916   10.6701 
 H                     5.96333   12.4796   2.41859 
 C                     10.8133   10.6975   9.85285 
 C                     11.2463   9.86066   8.83666 
 C                     10.348    9.58613   7.81785 
 C                     9.53832   11.2366   9.88596 
 C                     8.64949   10.9306   8.85768 
 C                     9.04366   10.0901   7.80949 
 H                     9.25796   11.8824   10.714 
 H                     12.2575   9.46039   8.84134 
 F                     6.16079   4.63916   5.97444 
 H                     8.64813   7.61794   8.30584 
 F                     11.6861   10.9828   10.8614 
 H                     7.6419    11.3458   8.87732 
 F                     10.7353   8.78827   6.78356 
 

 GradGradGradGradGradGradGradGradGradGradGradGradGradGradGradGradGradGrad
 Berny optimization.
 Initialization pass.
                           ----------------------------
                           !    Initial Parameters    !
                           ! (Angstroms and Degrees)  !
 --------------------------                            --------------------------
 ! Name  Definition              Value          Derivative Info.                !
 --------------------------------------------------------------------------------
 ! R1    R(1,2)                  1.4562         estimate D2E/DX2                !
 ! R2    R(1,5)                  1.4595         estimate D2E/DX2                !
 ! R3    R(1,26)                 1.3897         estimate D2E/DX2                !
 ! R4    R(2,3)                  1.52           estimate D2E/DX2                !
 ! R5    R(2,8)                  1.0956         estimate D2E/DX2                !
 ! R6    R(2,9)                  1.1087         estimate D2E/DX2                !
 ! R7    R(3,4)                  1.4641         estimate D2E/DX2                !
 ! R8    R(3,13)                 1.101          estimate D2E/DX2                !
 ! R9    R(3,14)                 1.1128         estimate D2E/DX2                !
 ! R10   R(4,6)                  1.4669         estimate D2E/DX2                !
 ! R11   R(4,7)                  1.0305         estimate D2E/DX2                !
 ! R12   R(5,6)                  1.5347         estimate D2E/DX2                !
 ! R13   R(5,10)                 1.1091         estimate D2E/DX2                !
 ! R14   R(5,11)                 1.0964         estimate D2E/DX2                !
 ! R15   R(6,12)                 1.1143         estimate D2E/DX2                !
 ! R16   R(6,27)                 1.5181         estimate D2E/DX2                !
 ! R17   R(15,24)                1.246          estimate D2E/DX2                !
 ! R18   R(16,29)                1.362          estimate D2E/DX2                !
 ! R19   R(16,35)                0.9845         estimate D2E/DX2                !
 ! R20   R(17,29)                1.2387         estimate D2E/DX2                !
 ! R21   R(18,20)                1.4143         estimate D2E/DX2                !
 ! R22   R(18,22)                1.3617         estimate D2E/DX2                !
 ! R23   R(18,41)                1.4309         estimate D2E/DX2                !
 ! R24   R(19,20)                1.4009         estimate D2E/DX2                !
 ! R25   R(19,26)                1.406          estimate D2E/DX2                !
 ! R26   R(19,45)                1.0881         estimate D2E/DX2                !
 ! R27   R(20,21)                1.4101         estimate D2E/DX2                !
 ! R28   R(21,24)                1.4819         estimate D2E/DX2                !
 ! R29   R(21,25)                1.4033         estimate D2E/DX2                !
 ! R30   R(22,23)                1.3733         estimate D2E/DX2                !
 ! R31   R(22,30)                1.0916         estimate D2E/DX2                !
 ! R32   R(23,24)                1.472          estimate D2E/DX2                !
 ! R33   R(23,29)                1.4848         estimate D2E/DX2                !
 ! R34   R(25,28)                1.3699         estimate D2E/DX2                !
 ! R35   R(25,31)                1.0886         estimate D2E/DX2                !
 ! R36   R(26,28)                1.4195         estimate D2E/DX2                !
 ! R37   R(27,32)                1.0995         estimate D2E/DX2                !
 ! R38   R(27,33)                1.0993         estimate D2E/DX2                !
 ! R39   R(27,34)                1.0994         estimate D2E/DX2                !
 ! R40   R(28,44)                1.3737         estimate D2E/DX2                !
 ! R41   R(36,37)                1.3858         estimate D2E/DX2                !
 ! R42   R(36,39)                1.3847         estimate D2E/DX2                !
 ! R43   R(36,46)                1.3639         estimate D2E/DX2                !
 ! R44   R(37,38)                1.3857         estimate D2E/DX2                !
 ! R45   R(37,43)                1.0875         estimate D2E/DX2                !
 ! R46   R(38,41)                1.3983         estimate D2E/DX2                !
 ! R47   R(38,48)                1.3625         estimate D2E/DX2                !
 ! R48   R(39,40)                1.3932         estimate D2E/DX2                !
 ! R49   R(39,42)                1.0869         estimate D2E/DX2                !
 ! R50   R(40,41)                1.4002         estimate D2E/DX2                !
 ! R51   R(40,47)                1.09           estimate D2E/DX2                !
 ! A1    A(2,1,5)              112.4489         estimate D2E/DX2                !
 ! A2    A(2,1,26)             123.6152         estimate D2E/DX2                !
 ! A3    A(5,1,26)             123.8546         estimate D2E/DX2                !
 ! A4    A(1,2,3)              111.6165         estimate D2E/DX2                !
 ! A5    A(1,2,8)              109.3658         estimate D2E/DX2                !
 ! A6    A(1,2,9)              108.0676         estimate D2E/DX2                !
 ! A7    A(3,2,8)              111.438          estimate D2E/DX2                !
 ! A8    A(3,2,9)              107.4934         estimate D2E/DX2                !
 ! A9    A(8,2,9)              108.7449         estimate D2E/DX2                !
 ! A10   A(2,3,4)              108.2243         estimate D2E/DX2                !
 ! A11   A(2,3,13)             109.1253         estimate D2E/DX2                !
 ! A12   A(2,3,14)             108.9354         estimate D2E/DX2                !
 ! A13   A(4,3,13)             109.213          estimate D2E/DX2                !
 ! A14   A(4,3,14)             113.6824         estimate D2E/DX2                !
 ! A15   A(13,3,14)            107.5882         estimate D2E/DX2                !
 ! A16   A(3,4,6)              112.461          estimate D2E/DX2                !
 ! A17   A(3,4,7)              111.7004         estimate D2E/DX2                !
 ! A18   A(6,4,7)              109.7179         estimate D2E/DX2                !
 ! A19   A(1,5,6)              109.1726         estimate D2E/DX2                !
 ! A20   A(1,5,10)             110.3001         estimate D2E/DX2                !
 ! A21   A(1,5,11)             109.8928         estimate D2E/DX2                !
 ! A22   A(6,5,10)             109.3029         estimate D2E/DX2                !
 ! A23   A(6,5,11)             109.3507         estimate D2E/DX2                !
 ! A24   A(10,5,11)            108.8041         estimate D2E/DX2                !
 ! A25   A(4,6,5)              108.6504         estimate D2E/DX2                !
 ! A26   A(4,6,12)             111.0415         estimate D2E/DX2                !
 ! A27   A(4,6,27)             109.377          estimate D2E/DX2                !
 ! A28   A(5,6,12)             105.9805         estimate D2E/DX2                !
 ! A29   A(5,6,27)             111.6012         estimate D2E/DX2                !
 ! A30   A(12,6,27)            110.1532         estimate D2E/DX2                !
 ! A31   A(29,16,35)           105.0901         estimate D2E/DX2                !
 ! A32   A(20,18,22)           120.0984         estimate D2E/DX2                !
 ! A33   A(20,18,41)           121.1091         estimate D2E/DX2                !
 ! A34   A(22,18,41)           118.7924         estimate D2E/DX2                !
 ! A35   A(20,19,26)           122.0043         estimate D2E/DX2                !
 ! A36   A(20,19,45)           120.3874         estimate D2E/DX2                !
 ! A37   A(26,19,45)           117.6016         estimate D2E/DX2                !
 ! A38   A(18,20,19)           121.6031         estimate D2E/DX2                !
 ! A39   A(18,20,21)           117.9354         estimate D2E/DX2                !
 ! A40   A(19,20,21)           120.4503         estimate D2E/DX2                !
 ! A41   A(20,21,24)           123.1333         estimate D2E/DX2                !
 ! A42   A(20,21,25)           118.0164         estimate D2E/DX2                !
 ! A43   A(24,21,25)           118.7786         estimate D2E/DX2                !
 ! A44   A(18,22,23)           124.7913         estimate D2E/DX2                !
 ! A45   A(18,22,30)           116.4562         estimate D2E/DX2                !
 ! A46   A(23,22,30)           118.7029         estimate D2E/DX2                !
 ! A47   A(22,23,24)           119.7141         estimate D2E/DX2                !
 ! A48   A(22,23,29)           113.7355         estimate D2E/DX2                !
 ! A49   A(24,23,29)           126.4631         estimate D2E/DX2                !
 ! A50   A(15,24,21)           120.6892         estimate D2E/DX2                !
 ! A51   A(15,24,23)           125.6029         estimate D2E/DX2                !
 ! A52   A(21,24,23)           113.6982         estimate D2E/DX2                !
 ! A53   A(21,25,28)           120.7413         estimate D2E/DX2                !
 ! A54   A(21,25,31)           118.7398         estimate D2E/DX2                !
 ! A55   A(28,25,31)           120.4646         estimate D2E/DX2                !
 ! A56   A(1,26,19)            122.6205         estimate D2E/DX2                !
 ! A57   A(1,26,28)            121.6086         estimate D2E/DX2                !
 ! A58   A(19,26,28)           115.7523         estimate D2E/DX2                !
 ! A59   A(6,27,32)            110.0904         estimate D2E/DX2                !
 ! A60   A(6,27,33)            110.4529         estimate D2E/DX2                !
 ! A61   A(6,27,34)            111.6376         estimate D2E/DX2                !
 ! A62   A(32,27,33)           108.1            estimate D2E/DX2                !
 ! A63   A(32,27,34)           109.4347         estimate D2E/DX2                !
 ! A64   A(33,27,34)           107.0151         estimate D2E/DX2                !
 ! A65   A(25,28,26)           123.0125         estimate D2E/DX2                !
 ! A66   A(25,28,44)           118.6622         estimate D2E/DX2                !
 ! A67   A(26,28,44)           118.1695         estimate D2E/DX2                !
 ! A68   A(16,29,17)           122.3752         estimate D2E/DX2                !
 ! A69   A(16,29,23)           113.5575         estimate D2E/DX2                !
 ! A70   A(17,29,23)           124.0673         estimate D2E/DX2                !
 ! A71   A(37,36,39)           122.7073         estimate D2E/DX2                !
 ! A72   A(37,36,46)           117.9428         estimate D2E/DX2                !
 ! A73   A(39,36,46)           119.347          estimate D2E/DX2                !
 ! A74   A(36,37,38)           117.1425         estimate D2E/DX2                !
 ! A75   A(36,37,43)           120.6384         estimate D2E/DX2                !
 ! A76   A(38,37,43)           122.2074         estimate D2E/DX2                !
 ! A77   A(37,38,41)           122.5247         estimate D2E/DX2                !
 ! A78   A(37,38,48)           119.3312         estimate D2E/DX2                !
 ! A79   A(41,38,48)           118.1425         estimate D2E/DX2                !
 ! A80   A(36,39,40)           118.9651         estimate D2E/DX2                !
 ! A81   A(36,39,42)           119.148          estimate D2E/DX2                !
 ! A82   A(40,39,42)           121.8864         estimate D2E/DX2                !
 ! A83   A(39,40,41)           120.3161         estimate D2E/DX2                !
 ! A84   A(39,40,47)           119.5246         estimate D2E/DX2                !
 ! A85   A(41,40,47)           120.1584         estimate D2E/DX2                !
 ! A86   A(18,41,38)           119.1291         estimate D2E/DX2                !
 ! A87   A(18,41,40)           122.527          estimate D2E/DX2                !
 ! A88   A(38,41,40)           118.324          estimate D2E/DX2                !
 ! D1    D(5,1,2,3)            -56.6327         estimate D2E/DX2                !
 ! D2    D(5,1,2,8)            179.5875         estimate D2E/DX2                !
 ! D3    D(5,1,2,9)             61.3611         estimate D2E/DX2                !
 ! D4    D(26,1,2,3)           120.1957         estimate D2E/DX2                !
 ! D5    D(26,1,2,8)            -3.584          estimate D2E/DX2                !
 ! D6    D(26,1,2,9)          -121.8105         estimate D2E/DX2                !
 ! D7    D(2,1,5,6)             56.9288         estimate D2E/DX2                !
 ! D8    D(2,1,5,10)           -63.1884         estimate D2E/DX2                !
 ! D9    D(2,1,5,11)           176.855          estimate D2E/DX2                !
 ! D10   D(26,1,5,6)          -119.8908         estimate D2E/DX2                !
 ! D11   D(26,1,5,10)          119.992          estimate D2E/DX2                !
 ! D12   D(26,1,5,11)            0.0354         estimate D2E/DX2                !
 ! D13   D(2,1,26,19)          -42.8785         estimate D2E/DX2                !
 ! D14   D(2,1,26,28)          135.4829         estimate D2E/DX2                !
 ! D15   D(5,1,26,19)          133.5915         estimate D2E/DX2                !
 ! D16   D(5,1,26,28)          -48.0472         estimate D2E/DX2                !
 ! D17   D(1,2,3,4)             55.1894         estimate D2E/DX2                !
 ! D18   D(1,2,3,13)           173.9321         estimate D2E/DX2                !
 ! D19   D(1,2,3,14)           -68.8683         estimate D2E/DX2                !
 ! D20   D(8,2,3,4)            177.7908         estimate D2E/DX2                !
 ! D21   D(8,2,3,13)           -63.4665         estimate D2E/DX2                !
 ! D22   D(8,2,3,14)            53.7331         estimate D2E/DX2                !
 ! D23   D(9,2,3,4)            -63.1483         estimate D2E/DX2                !
 ! D24   D(9,2,3,13)            55.5943         estimate D2E/DX2                !
 ! D25   D(9,2,3,14)           172.794          estimate D2E/DX2                !
 ! D26   D(2,3,4,6)            -58.5937         estimate D2E/DX2                !
 ! D27   D(2,3,4,7)            177.5264         estimate D2E/DX2                !
 ! D28   D(13,3,4,6)          -177.2807         estimate D2E/DX2                !
 ! D29   D(13,3,4,7)            58.8394         estimate D2E/DX2                !
 ! D30   D(14,3,4,6)            62.5688         estimate D2E/DX2                !
 ! D31   D(14,3,4,7)           -61.3112         estimate D2E/DX2                !
 ! D32   D(3,4,6,5)             60.4906         estimate D2E/DX2                !
 ! D33   D(3,4,6,12)           -55.6878         estimate D2E/DX2                !
 ! D34   D(3,4,6,27)          -177.4645         estimate D2E/DX2                !
 ! D35   D(7,4,6,5)           -174.5359         estimate D2E/DX2                !
 ! D36   D(7,4,6,12)            69.2857         estimate D2E/DX2                !
 ! D37   D(7,4,6,27)           -52.491          estimate D2E/DX2                !
 ! D38   D(1,5,6,4)            -57.4986         estimate D2E/DX2                !
 ! D39   D(1,5,6,12)            61.8967         estimate D2E/DX2                !
 ! D40   D(1,5,6,27)          -178.1798         estimate D2E/DX2                !
 ! D41   D(10,5,6,4)            63.23           estimate D2E/DX2                !
 ! D42   D(10,5,6,12)         -177.3746         estimate D2E/DX2                !
 ! D43   D(10,5,6,27)          -57.4512         estimate D2E/DX2                !
 ! D44   D(11,5,6,4)          -177.7584         estimate D2E/DX2                !
 ! D45   D(11,5,6,12)          -58.363          estimate D2E/DX2                !
 ! D46   D(11,5,6,27)           61.5604         estimate D2E/DX2                !
 ! D47   D(4,6,27,32)          -59.4432         estimate D2E/DX2                !
 ! D48   D(4,6,27,33)           59.8627         estimate D2E/DX2                !
 ! D49   D(4,6,27,34)          178.8052         estimate D2E/DX2                !
 ! D50   D(5,6,27,32)           60.8124         estimate D2E/DX2                !
 ! D51   D(5,6,27,33)         -179.8817         estimate D2E/DX2                !
 ! D52   D(5,6,27,34)          -60.9392         estimate D2E/DX2                !
 ! D53   D(12,6,27,32)         178.2467         estimate D2E/DX2                !
 ! D54   D(12,6,27,33)         -62.4474         estimate D2E/DX2                !
 ! D55   D(12,6,27,34)          56.4951         estimate D2E/DX2                !
 ! D56   D(35,16,29,17)          1.9972         estimate D2E/DX2                !
 ! D57   D(35,16,29,23)       -177.9633         estimate D2E/DX2                !
 ! D58   D(22,18,20,19)       -177.9101         estimate D2E/DX2                !
 ! D59   D(22,18,20,21)          0.8809         estimate D2E/DX2                !
 ! D60   D(41,18,20,19)          2.2073         estimate D2E/DX2                !
 ! D61   D(41,18,20,21)       -179.0017         estimate D2E/DX2                !
 ! D62   D(20,18,22,23)         -2.2258         estimate D2E/DX2                !
 ! D63   D(20,18,22,30)       -179.6219         estimate D2E/DX2                !
 ! D64   D(41,18,22,23)        177.6595         estimate D2E/DX2                !
 ! D65   D(41,18,22,30)          0.2634         estimate D2E/DX2                !
 ! D66   D(20,18,41,38)         69.0153         estimate D2E/DX2                !
 ! D67   D(20,18,41,40)       -112.6377         estimate D2E/DX2                !
 ! D68   D(22,18,41,38)       -110.8688         estimate D2E/DX2                !
 ! D69   D(22,18,41,40)         67.4782         estimate D2E/DX2                !
 ! D70   D(26,19,20,18)        177.7447         estimate D2E/DX2                !
 ! D71   D(26,19,20,21)         -1.0162         estimate D2E/DX2                !
 ! D72   D(45,19,20,18)         -1.2881         estimate D2E/DX2                !
 ! D73   D(45,19,20,21)        179.951          estimate D2E/DX2                !
 ! D74   D(20,19,26,1)         178.3367         estimate D2E/DX2                !
 ! D75   D(20,19,26,28)         -0.1139         estimate D2E/DX2                !
 ! D76   D(45,19,26,1)          -2.6048         estimate D2E/DX2                !
 ! D77   D(45,19,26,28)        178.9446         estimate D2E/DX2                !
 ! D78   D(18,20,21,24)          5.2161         estimate D2E/DX2                !
 ! D79   D(18,20,21,25)       -177.9048         estimate D2E/DX2                !
 ! D80   D(19,20,21,24)       -175.9784         estimate D2E/DX2                !
 ! D81   D(19,20,21,25)          0.9008         estimate D2E/DX2                !
 ! D82   D(20,21,24,15)        169.6091         estimate D2E/DX2                !
 ! D83   D(20,21,24,23)         -9.32           estimate D2E/DX2                !
 ! D84   D(25,21,24,15)         -7.2475         estimate D2E/DX2                !
 ! D85   D(25,21,24,23)        173.8235         estimate D2E/DX2                !
 ! D86   D(20,21,25,28)          0.3452         estimate D2E/DX2                !
 ! D87   D(20,21,25,31)       -176.9882         estimate D2E/DX2                !
 ! D88   D(24,21,25,28)        177.3637         estimate D2E/DX2                !
 ! D89   D(24,21,25,31)          0.0302         estimate D2E/DX2                !
 ! D90   D(18,22,23,24)         -2.5341         estimate D2E/DX2                !
 ! D91   D(18,22,23,29)       -179.353          estimate D2E/DX2                !
 ! D92   D(30,22,23,24)        174.808          estimate D2E/DX2                !
 ! D93   D(30,22,23,29)         -2.0109         estimate D2E/DX2                !
 ! D94   D(22,23,24,15)       -171.0791         estimate D2E/DX2                !
 ! D95   D(22,23,24,21)          7.7882         estimate D2E/DX2                !
 ! D96   D(29,23,24,15)          5.2995         estimate D2E/DX2                !
 ! D97   D(29,23,24,21)       -175.8332         estimate D2E/DX2                !
 ! D98   D(22,23,29,16)       -177.9887         estimate D2E/DX2                !
 ! D99   D(22,23,29,17)          2.0515         estimate D2E/DX2                !
 ! D100  D(24,23,29,16)          5.4469         estimate D2E/DX2                !
 ! D101  D(24,23,29,17)       -174.5128         estimate D2E/DX2                !
 ! D102  D(21,25,28,26)         -1.5503         estimate D2E/DX2                !
 ! D103  D(21,25,28,44)       -176.9247         estimate D2E/DX2                !
 ! D104  D(31,25,28,26)        175.7372         estimate D2E/DX2                !
 ! D105  D(31,25,28,44)          0.3627         estimate D2E/DX2                !
 ! D106  D(1,26,28,25)        -177.0626         estimate D2E/DX2                !
 ! D107  D(1,26,28,44)          -1.6666         estimate D2E/DX2                !
 ! D108  D(19,26,28,25)          1.4051         estimate D2E/DX2                !
 ! D109  D(19,26,28,44)        176.8011         estimate D2E/DX2                !
 ! D110  D(39,36,37,38)          0.8699         estimate D2E/DX2                !
 ! D111  D(39,36,37,43)        179.6517         estimate D2E/DX2                !
 ! D112  D(46,36,37,38)       -179.7527         estimate D2E/DX2                !
 ! D113  D(46,36,37,43)         -0.9709         estimate D2E/DX2                !
 ! D114  D(37,36,39,40)         -0.0793         estimate D2E/DX2                !
 ! D115  D(37,36,39,42)        179.6801         estimate D2E/DX2                !
 ! D116  D(46,36,39,40)       -179.4484         estimate D2E/DX2                !
 ! D117  D(46,36,39,42)          0.311          estimate D2E/DX2                !
 ! D118  D(36,37,38,41)         -1.6647         estimate D2E/DX2                !
 ! D119  D(36,37,38,48)        178.8053         estimate D2E/DX2                !
 ! D120  D(43,37,38,41)        179.5741         estimate D2E/DX2                !
 ! D121  D(43,37,38,48)          0.044          estimate D2E/DX2                !
 ! D122  D(37,38,41,18)       -179.9486         estimate D2E/DX2                !
 ! D123  D(37,38,41,40)          1.6347         estimate D2E/DX2                !
 ! D124  D(48,38,41,18)         -0.4132         estimate D2E/DX2                !
 ! D125  D(48,38,41,40)       -178.8299         estimate D2E/DX2                !
 ! D126  D(36,39,40,41)          0.0265         estimate D2E/DX2                !
 ! D127  D(36,39,40,47)        179.683          estimate D2E/DX2                !
 ! D128  D(42,39,40,41)       -179.726          estimate D2E/DX2                !
 ! D129  D(42,39,40,47)         -0.0695         estimate D2E/DX2                !
 ! D130  D(39,40,41,18)       -179.1305         estimate D2E/DX2                !
 ! D131  D(39,40,41,38)         -0.7709         estimate D2E/DX2                !
 ! D132  D(47,40,41,18)          1.2152         estimate D2E/DX2                !
 ! D133  D(47,40,41,38)        179.5749         estimate D2E/DX2                !
 --------------------------------------------------------------------------------
 Trust Radius=3.00D-01 FncErr=1.00D-07 GrdErr=1.00D-06
 Number of steps in this run=    282 maximum allowed number of steps=    288.
 GradGradGradGradGradGradGradGradGradGradGradGradGradGradGradGradGradGrad

                          Input orientation:                          
 ---------------------------------------------------------------------
 Center     Atomic      Atomic             Coordinates (Angstroms)
 Number     Number       Type             X           Y           Z
 ---------------------------------------------------------------------
      1          7           0        7.817430    5.085810    8.183000
      2          6           0        9.167100    4.839940    8.671340
      3          6           0        9.238880    4.928060   10.187100
      4          7           0        8.253260    4.001370   10.746800
      5          6           0        6.838530    4.175050    8.768060
      6          6           0        6.888420    4.296040   10.297200
      7          1           0        8.284760    3.987940   11.776700
      8          1           0        9.859230    5.543760    8.196100
      9          1           0        9.454340    3.808530    8.383500
     10          1           0        7.063170    3.129060    8.475520
     11          1           0        5.832540    4.432240    8.415900
     12          1           0        6.608790    5.349040   10.530900
     13          1           0       10.245600    4.629900   10.518500
     14          1           0        9.083060    5.985990   10.495100
     15          8           0        5.980970    8.873970    3.343050
     16          8           0        5.996860   11.603400    2.866250
     17          8           0        7.312040   12.885400    4.216450
     18          7           0        8.176110    9.759290    6.720780
     19          6           0        8.004040    7.419300    7.451640
     20          6           0        7.692890    8.441660    6.545830
     21          6           0        6.859190    8.185470    5.437860
     22          6           0        7.819960   10.739200    5.844850
     23          6           0        7.033950   10.550100    4.734680
     24          6           0        6.561360    9.197520    4.397080
     25          6           0        6.342460    6.889510    5.287470
     26          6           0        7.490640    6.117890    7.311580
     27          6           0        5.919850    3.337020   10.965600
     28          6           0        6.636790    5.908350    6.197110
     29          6           0        6.812040   11.785800    3.942000
     30          1           0        8.231990   11.732500    6.032480
     31          1           0        5.738190    6.665470    4.410090
     32          1           0        6.178000    2.299530   10.708900
     33          1           0        5.969460    3.440810   12.058900
     34          1           0        4.880420    3.539160   10.670100
     35          1           0        5.963330   12.479600    2.418590
     36          6           0       10.813300   10.697500    9.852850
     37          6           0       11.246300    9.860660    8.836660
     38          6           0       10.348000    9.586130    7.817850
     39          6           0        9.538320   11.236600    9.885960
     40          6           0        8.649490   10.930600    8.857680
     41          6           0        9.043660   10.090100    7.809490
     42          1           0        9.257960   11.882400   10.714000
     43          1           0       12.257500    9.460390    8.841340
     44          9           0        6.160790    4.639160    5.974440
     45          1           0        8.648130    7.617940    8.305840
     46          9           0       11.686100   10.982800   10.861400
     47          1           0        7.641900   11.345800    8.877320
     48          9           0       10.735300    8.788270    6.783560
 ---------------------------------------------------------------------
                    Distance matrix (angstroms):
                    1          2          3          4          5
     1  N    0.000000
     2  C    1.456206   0.000000
     3  C    2.462077   1.520015   0.000000
     4  N    2.817628   2.417817   1.464058   0.000000
     5  C    1.459460   2.423566   2.888318   2.438655   0.000000
     6  C    2.440622   2.851601   2.436439   1.466887   1.534730
     7  H    3.786607   3.338815   2.078701   1.030469   3.343427
     8  H    2.092567   1.095564   2.174397   3.385879   3.365284
     9  H    2.085934   1.108677   2.133716   2.658001   2.669211
    10  H    2.117391   2.718819   3.301457   2.708496   1.109116
    11  H    2.102661   3.369089   3.871193   3.388013   1.096439
    12  H    2.653815   3.203451   2.685665   2.137080   2.130408
    13  H    3.399768   2.149251   1.101004   2.101568   3.857338
    14  H    2.785310   2.155596   1.112816   2.165788   3.361560
    15  O    6.414660   7.403749   8.545479   9.149921   7.228139
    16  O    8.605887   9.460121  10.424284  11.179681   9.524713
    17  O    8.764847   9.381723  10.133145  11.066045   9.839287
    18  N    4.910005   5.383934   6.040334   7.026267   6.096246
    19  C    2.452527   3.081148   3.900493   4.754202   3.690059
    20  C    3.735982   4.434352   5.290966   6.138268   4.885918
    21  C    4.249931   5.193690   6.231286   6.901809   5.212881
    22  C    6.117824   6.678705   7.391740   8.343573   7.252339
    23  C    6.508703   7.256276   8.136211   8.973192   7.546364
    24  C    5.728618   6.636843   7.676049   8.377437   6.663895
    25  C    3.716580   4.861060   6.020208   6.465044   4.441721
    26  C    1.389732   2.508510   3.569405   4.106334   2.514201
    27  C    3.794989   4.250533   3.762105   2.435988   2.524965
    28  C    2.452395   3.696726   4.863318   5.191264   3.107219
    29  C    7.992919   8.726851   9.587462  10.439338   9.011941
    30  H    6.998220   7.439449   8.035863   9.055144   8.157216
    31  H    4.588400   5.766128   6.974759   7.319624   5.138564
    32  H    4.102592   4.420413   4.068222   2.684101   2.778621
    33  H    4.598219   4.863952   4.050266   2.692875   3.481956
    34  H    4.147749   4.905374   4.599838   3.405227   2.802910
    35  H    9.556895  10.379086  11.318336  12.103026  10.490343
    36  C    6.576831   6.198141   5.989738   7.224341   7.714786
    37  C    5.914695   5.436730   5.493994   6.851146   7.194394
    38  C    5.175906   4.964805   5.342388   6.645015   6.519131
    39  C    6.610125   6.521531   6.322818   7.398715   7.642255
    40  C    5.942145   6.115454   6.176182   7.193052   6.994645
    41  C    5.165856   5.321861   5.686633   6.806259   6.385082
    42  H    7.394236   7.333277   6.974298   7.944881   8.309246
    43  H    6.267741   5.561298   5.609381   7.033180   7.570035
    44  F    2.796728   4.043697   5.225381   5.249822   2.911880
    45  H    2.667740   2.849597   3.335203   4.381071   3.916860
    46  F    7.544198   6.991170   6.565321   7.780610   8.615478
    47  H    6.300823   6.685423   6.741903   7.603247   7.216439
    48  F    4.917378   4.648900   5.359532   6.691951   6.356481
                    6          7          8          9         10
     6  C    0.000000
     7  H    2.057574   0.000000
     8  H    3.846705   4.209540   0.000000
     9  H    3.237879   3.593593   1.791669   0.000000
    10  H    2.170460   3.623223   3.704970   2.487537   0.000000
    11  H    2.161648   4.183989   4.183064   3.675255   1.793400
    12  H    1.114279   2.492687   4.006815   3.883510   3.059307
    13  H    3.380990   2.416624   2.525463   2.420530   4.068679
    14  H    2.776966   2.504393   2.466457   3.055820   4.039890
    15  O    8.375029  10.015348   7.048638   7.945383   7.779293
    16  O   10.459991  11.942606   8.946756  10.156486  10.218384
    17  O   10.532430  11.716158   8.730720  10.214858  10.648370
    18  N    6.655526   7.673501   4.772856   6.309521   6.948215
    19  C    4.369963   5.528036   2.741095   4.001174   4.509959
    20  C    5.648550   6.895501   3.976713   5.286363   5.687176
    21  C    6.224284   7.735141   4.856620   5.879558   5.902226
    22  C    7.887046   8.999022   6.056368   7.559770   8.087483
    23  C    8.371145   9.706519   6.710222   8.038715   8.310630
    24  C    7.677427   9.196120   6.217593   7.300828   7.328826
    25  C    5.667588   7.368972   4.758029   5.362988   4.982376
    26  C    3.549047   5.010450   2.592724   3.215319   3.235829
    27  C    1.518093   2.583482   5.297032   4.402520   2.747895
    28  C    4.412890   6.126631   3.809594   4.138615   3.619034
    29  C    9.822978  11.151594   8.145293   9.505025   9.775225
    30  H    8.677209   9.642461   6.754973   8.355282   9.019632
    31  H    6.449441   8.241428   5.707458   6.144906   5.548828
    32  H    2.158760   2.903337   5.512771   4.291733   2.541581
    33  H    2.163214   2.395747   5.871451   5.078206   3.759521
    34  H    2.178069   3.607700   5.909962   5.120727   3.122301
    35  H   11.397322  12.848017   9.831762  11.088497  11.195028
    36  C    7.522022   7.423807   5.496918   7.173818   8.558142
    37  C    7.217291   7.204401   4.579291   6.328092   7.933690
    38  C    6.789766   7.160250   4.089343   5.873606   7.274365
    39  C    7.440596   7.595353   5.947019   7.578962   8.593481
    40  C    7.013628   7.540175   5.560504   7.183071   7.970350
    41  C    6.663700   7.317858   4.635065   6.321097   7.267876
    42  H    7.958725   8.024896   6.846875   8.405782   9.297788
    43  H    7.590590   7.372022   4.637674   6.325413   8.197599
    44  F    4.396980   6.213015   4.408235   4.164251   3.057792
    45  H    4.254070   5.035455   2.404377   3.894562   4.763500
    46  F    8.249171   7.831664   6.326487   7.911441   9.420464
    47  H    7.230692   7.934594   6.248542   7.767833   8.246890
    48  F    6.879265   7.347092   3.645492   5.385023   6.955137
                   11         12         13         14         15
    11  H    0.000000
    12  H    2.432347   0.000000
    13  H    4.892351   3.707250   0.000000
    14  H    4.159699   2.555191   1.786345   0.000000
    15  O    6.744242   8.030223   9.364095   8.313556   0.000000
    16  O    9.069242   9.911525  11.190997   9.963899   2.770808
    17  O    9.554068   9.857158  10.792353   9.495252   4.315802
    18  N    6.061618   6.035214   6.709404   5.413487   4.124499
    19  C    3.816770   3.964157   4.712852   3.532890   4.805142
    20  C    4.799324   5.159492   6.068604   4.853825   3.657234
    21  C    4.899946   5.834989   7.065604   5.946342   2.373506
    22  C    7.094919   7.244296   8.065375   6.768549   3.622150
    23  C    7.240371   7.799228   8.877840   7.629704   2.419672
    24  C    6.276144   7.241326   8.479891   7.338852   1.246000
    25  C    4.010644   5.471521   6.906809   5.953709   2.801700
    26  C    2.609643   3.425319   4.481992   3.562022   5.062046
    27  C    2.776347   2.170674   4.536910   4.152627   9.421508
    28  C    2.783657   4.369822   5.773418   4.946007   4.167812
    29  C    8.663143   9.213403  10.307599   9.040932   3.086774
    30  H    8.045610   7.976160   8.638630   7.325413   4.524524
    31  H    4.587236   6.321016   7.859578   6.976904   2.464749
    32  H    3.150499   3.084927   4.691721   4.698412   9.875112
    33  H    3.777980   2.526830   4.698100   4.314848  10.270609
    34  H    2.604907   2.506453   5.477030   4.866188   9.130009
    35  H   10.037173  10.819939  12.064998  10.822648   3.722298
    36  C    8.131807   6.836935   6.130346   5.060093   8.309884
    37  C    7.678123   6.688173   5.584876   4.737415   7.673135
    38  C    6.878199   6.268593   5.645194   4.661411   6.293009
    39  C    7.886266   6.607682   6.674491   5.305395   7.813222
    40  C    7.096412   6.173972   6.708555   5.226691   6.462342
    41  C    6.533789   5.984339   6.212663   4.904872   5.550507
    42  H    8.515847   7.052405   7.322050   5.903063   8.609310
    43  H    8.169664   7.187888   5.494929   4.988331   8.364802
    44  F    2.472103   4.633137   6.110175   5.548872   4.989004
    45  H    4.253039   3.775938   4.046747   2.765011   5.772403
    46  F    9.118907   7.591282   6.523186   5.646070   9.670639
    47  H    7.161285   6.305773   7.387560   5.781152   6.284646
    48  F    6.758446   6.549729   5.610849   4.935403   5.869251
                   16         17         18         19         20
    16  O    0.000000
    17  O    2.279531   0.000000
    18  N    4.796590   4.097664   0.000000
    19  C    6.523900   6.389332   2.457502   0.000000
    20  C    5.139302   5.031688   1.414305   1.400902   0.000000
    21  C    4.363374   4.877116   2.420139   2.439879   1.410066
    22  C    3.597582   2.741504   1.361734   3.692884   2.405454
    23  C    2.382441   2.408220   2.423737   4.257330   2.856569
    24  C    2.906950   3.767838   2.884889   3.817555   2.543386
    25  C    5.310603   6.167485   3.694900   2.779417   2.411701
    26  C    7.216866   7.443851   3.752160   1.406010   2.455033
    27  C   11.573178  11.775431   8.022142   5.775532   6.981074
    28  C    6.628554   7.284106   4.180129   2.392945   2.766697
    29  C    1.361993   1.238726   3.699871   5.727544   4.328868
    30  H    3.877820   2.339541   2.090559   4.546391   3.373987
    31  H    5.180107   6.418881   4.566669   3.866958   3.396629
    32  H   12.169715  12.469908   8.691695   6.336893   7.573097
    33  H   12.293634  12.349365   8.560842   6.418313   7.640200
    34  H   11.277344  11.615273   8.071476   5.930512   6.996720
    35  H    0.984505   2.283855   5.550254   7.423121   6.027474
    36  C    8.534127   6.986754   4.200580   4.940076   5.075643
    37  C    8.138769   6.780398   3.730052   4.288446   4.459617
    38  C    6.893485   5.750854   2.439396   3.213006   3.158711
    39  C    7.871011   6.310167   3.749190   4.780346   4.730092
    40  C    6.586831   5.210665   2.482418   3.837028   3.529101
    41  C    6.000724   4.870539   1.430863   2.888259   2.477654
    42  H    8.502929   6.856440   4.650140   5.668736   5.626880
    43  H    8.915706   7.588009   4.609106   4.918255   5.209879
    44  F    7.628129   8.509781   5.552861   3.648132   4.139181
    45  H    7.245845   6.801057   2.705660   1.088103   2.165325
    46  F    9.832346   8.179710   5.564327   6.154881   6.405253
    47  H    6.237426   4.919643   2.730029   4.192984   3.724577
    48  F    6.761885   5.924123   2.737933   3.127330   3.071305
                   21         22         23         24         25
    21  C    0.000000
    22  C    2.758669   0.000000
    23  C    2.473151   1.373335   0.000000
    24  C    1.481948   2.461075   1.472001   0.000000
    25  C    1.403260   4.160984   3.766119   2.483470   0.000000
    26  C    2.860847   4.859656   5.147180   4.340736   2.451680
    27  C    7.412539   9.199172   9.596567   8.826236   6.711181
    28  C    2.410643   4.986090   4.882856   3.750258   1.369945
    29  C    3.898999   2.394183   1.484769   2.639911   5.099456
    30  H    3.849620   1.091613   2.125477   3.448429   5.251658
    31  H    2.150198   4.794536   4.107883   2.662528   1.088638
    32  H    7.930459   9.878413  10.222322   9.357794   7.105411
    33  H    8.193997   9.762442  10.262521   9.601747   7.608214
    34  H    7.271868   9.152295   9.435051   8.613558   6.506544
    35  H    5.325233   4.267942   3.198980   3.878674   6.294706
    36  C    6.437190   5.002588   6.364030   7.077737   7.438541
    37  C    5.796968   4.632771   5.919921   6.488319   6.743303
    38  C    4.449494   3.407827   4.627970   5.117746   5.451507
    39  C    6.022684   4.419359   5.768781   6.568709   7.089205
    40  C    4.736674   3.130798   4.444534   5.221188   5.865083
    41  C    3.744884   2.403868   3.702025   4.313126   4.888849
    42  H    6.874521   5.204169   6.517171   7.374531   7.929459
    43  H    6.507753   5.505095   6.733320   7.229561   7.363906
    44  F    3.654038   6.322984   6.102346   4.840162   2.359874
    45  H    3.427493   4.060123   4.894520   4.704050   3.867465
    46  F    7.780675   6.338151   7.704961   8.440238   8.739463
    47  H    4.736054   3.097667   4.261949   5.084803   5.868057
    48  F    4.147108   3.631324   4.582788   4.825406   5.014042
                   26         27         28         29         30
    26  C    0.000000
    27  C    4.853090   0.000000
    28  C    1.419511   5.464818   0.000000
    29  C    6.628708  11.023105   6.297670   0.000000
    30  H    5.805992  10.008284   6.040901   2.527688   0.000000
    31  H    3.433594   7.354338   2.138727   5.252622   5.875881
    32  H    5.276806   1.099510   5.795716  11.669716  10.727008
    33  H    5.658427   1.099335   6.394894  11.671884  10.497090
    34  H    4.974209   1.099361   5.357755  10.816911   9.993566
    35  H    8.169785  12.515592   7.609999   1.876818   4.331879
    36  C    6.202496   8.908464   7.331005   7.220293   4.725422
    37  C    5.517171   8.686848   6.620843   6.879427   4.522530
    38  C    4.522113   8.280593   5.470461   5.688917   3.503134
    39  C    6.084539   8.755702   7.100475   6.562384   4.098990
    40  C    5.186091   8.340067   6.029311   5.317095   2.966329
    41  C    4.293977   8.082284   5.087222   4.776296   2.552264
    42  H    6.923110   9.177679   7.934866   7.200822   4.794968
    43  H    6.019587   9.064985   7.155510   7.685317   5.408966
    44  F    2.396474   5.163845   1.373682   7.458512   7.389771
    45  H    2.139740   5.730978   3.378599   6.307566   4.719210
    46  F    7.339650   9.576975   8.544073   8.501727   5.984262
    47  H    5.459438   8.453811   6.144887   5.023908   2.931017
    48  F    4.235275   8.390122   5.043377   5.696632   3.936899
                   31         32         33         34         35
    31  H    0.000000
    32  H    7.676579   0.000000
    33  H    8.303988   1.780031   0.000000
    34  H    7.049632   1.794966   1.767610   0.000000
    35  H    6.149867  13.130466  13.214966  12.214400   0.000000
    36  C    8.463902   9.630406   8.999388   9.333209   9.053525
    37  C    7.755194   9.293204   8.913044   9.156817   8.715517
    38  C    6.433773   8.879280   8.655812   8.636875   7.533227
    39  C    8.082164   9.583329   8.844929   9.031140   8.371811
    40  C    6.815281   9.166823   8.574808   8.492593   7.146799
    41  C    5.848944   8.792700   8.468840   8.272271   6.652815
    42  H    8.907549  10.065663   9.158790   9.422019   8.945673
    43  H    8.363549   9.577370   9.280489   9.634658   9.485986
    44  F    2.594555   5.281030   6.204297   4.989847   8.611362
    45  H    4.954979   6.337328   6.221668   6.035048   8.093430
    46  F    9.779385  10.284046   9.539161  10.087698  10.308809
    47  H    6.744312   9.345196   8.683799   8.472512   6.768921
    48  F    5.925432   8.847656   8.895941   8.771429   7.446514
                   36         37         38         39         40
    36  C    0.000000
    37  C    1.385797   0.000000
    38  C    2.364925   1.385743   0.000000
    39  C    1.384666   2.431345   2.767076   0.000000
    40  C    2.393068   2.808672   2.402870   1.393203   0.000000
    41  C    2.770538   2.441177   1.398341   2.422990   1.400183
    42  H    2.136504   3.400784   3.853405   1.086881   2.173035
    43  H    2.153905   1.087549   2.170146   3.411758   3.896090
    44  F    8.566878   7.830631   6.738205   8.380568   7.354517
    45  H    4.069999   3.473046   2.646028   4.047705   3.358310
    46  F    1.363946   2.356309   3.606161   2.372521   3.638491
    47  H    3.380788   3.898589   3.397336   2.150741   1.089961
    48  F    3.615492   2.371995   1.362475   4.129403   3.638977
                   41         42         43         44         45
    41  C    0.000000
    42  H    3.419714   0.000000
    43  H    3.433659   4.286050   0.000000
    44  F    6.433591   9.193499   8.284519   0.000000
    45  H    2.552329   4.935255   4.087656   4.527186   0.000000
    46  F    4.134436   2.593621   2.593236   9.728987   5.204078
    47  H    2.163787   2.504592   4.985963   7.456502   3.903336
    48  F    2.368320   5.215796   2.646374   6.228638   2.836069
                   46         47         48
    46  F    0.000000
    47  H    4.519280   0.000000
    48  F    4.727448   4.527020   0.000000
 Stoichiometry    C21H18F3N3O3
 Framework group  C1[X(C21H18F3N3O3)]
 Deg. of freedom   138
 Full point group                 C1      NOp   1
 Largest Abelian subgroup         C1      NOp   1
 Largest concise Abelian subgroup C1      NOp   1
                         Standard orientation:                         
 ---------------------------------------------------------------------
 Center     Atomic      Atomic             Coordinates (Angstroms)
 Number     Number       Type             X           Y           Z
 ---------------------------------------------------------------------
      1          7           0       -2.950829   -0.953775    0.484959
      2          6           0       -3.443190    0.116667    1.340688
      3          6           0       -4.232875    1.147160    0.550164
      4          7           0       -5.304255    0.452232   -0.165855
      5          6           0       -4.023579   -1.621556   -0.245314
      6          6           0       -4.793623   -0.582482   -1.071604
      7          1           0       -5.900963    1.109111   -0.689607
      8          1           0       -2.600452    0.576650    1.868388
      9          1           0       -4.130815   -0.328907    2.087548
     10          1           0       -4.719947   -2.116969    0.461634
     11          1           0       -3.602494   -2.379647   -0.916256
     12          1           0       -4.057534   -0.156290   -1.791432
     13          1           0       -4.675874    1.874823    1.247637
     14          1           0       -3.536109    1.701994   -0.116947
     15          8           0        2.933694   -3.501288    0.310519
     16          8           0        5.450100   -2.592366   -0.409855
     17          8           0        5.725209   -0.337176   -0.596115
     18          7           0        1.721890    0.414267   -0.149321
     19          6           0       -0.617068   -0.266628    0.174672
     20          6           0        0.741771   -0.585006    0.053353
     21          6           0        1.168472   -1.927960    0.105180
     22          6           0        3.029239    0.066798   -0.305601
     23          6           0        3.511945   -1.217262   -0.240537
     24          6           0        2.595419   -2.326418    0.070169
     25          6           0        0.192532   -2.924109    0.261287
     26          6           0       -1.603394   -1.256566    0.329747
     27          6           0       -5.953542   -1.212743   -1.821247
     28          6           0       -1.134431   -2.596175    0.352811
     29          6           0        4.981175   -1.313830   -0.431790
     30          1           0        3.735980    0.885781   -0.451900
     31          1           0        0.512495   -3.960648    0.352616
     32          1           0       -6.663598   -1.660388   -1.111067
     33          1           0       -6.490014   -0.453233   -2.407660
     34          1           0       -5.609641   -1.981262   -2.528147
     35          1           0        6.425715   -2.509338   -0.512479
     36          6           0        0.689126    4.485897   -0.159561
     37          6           0        0.574200    3.765636    1.018764
     38          6           0        0.935736    2.428444    0.980151
     39          6           0        1.125663    3.917533   -1.344339
     40          6           0        1.466602    2.566773   -1.359256
     41          6           0        1.367213    1.799817   -0.192032
     42          1           0        1.188940    4.535524   -2.236187
     43          1           0        0.232849    4.247670    1.931938
     44          9           0       -2.047643   -3.599313    0.569054
     45          1           0       -0.945122    0.770097    0.135329
     46          9           0        0.342519    5.804904   -0.138779
     47          1           0        1.806380    2.108787   -2.288135
     48          9           0        0.863590    1.684395    2.119240
 ---------------------------------------------------------------------
 Rotational constants (GHZ):      0.1761295      0.1131835      0.0751387
 Standard basis: 3-21G (6D, 7F)
 There are   306 symmetry adapted cartesian basis functions of A   symmetry.
 There are   306 symmetry adapted basis functions of A   symmetry.
   306 basis functions,   504 primitive gaussians,   306 cartesian basis functions
   108 alpha electrons      108 beta electrons
       nuclear repulsion energy      2919.5658188672 Hartrees.
 NAtoms=   48 NActive=   48 NUniq=   48 SFac= 1.00D+00 NAtFMM=   60 NAOKFM=F Big=F
 Integral buffers will be    131072 words long.
 Raffenetti 2 integral format.
 Two-electron integral symmetry is turned on.
 One-electron integrals computed using PRISM.
 PrsmSu:  requested number of processors reduced to:   9 ShMem   1 Linda.
 NBasis=   306 RedAO= T EigKep=  1.25D-03  NBF=   306
 NBsUse=   306 1.00D-06 EigRej= -1.00D+00 NBFU=   306
 ExpMin= 1.83D-01 ExpMax= 4.14D+02 ExpMxC= 4.14D+02 IAcc=1 IRadAn=         1 AccDes= 0.00D+00
 Harris functional with IExCor=  402 and IRadAn=       1 diagonalized for initial guess.
 HarFok:  IExCor=  402 AccDes= 0.00D+00 IRadAn=         1 IDoV= 1 UseB2=F ITyADJ=14
 ICtDFT=  3500011 ScaDFX=  1.000000  1.000000  1.000000  1.000000
 FoFCou: FMM=F IPFlag=           0 FMFlag=      100000 FMFlg1=           0
         NFxFlg=           0 DoJE=T BraDBF=F KetDBF=T FulRan=T
         wScrn=  0.000000 ICntrl=     500 IOpCl=  0 I1Cent=   200000004 NGrid=           0
         NMat0=    1 NMatS0=      1 NMatT0=    0 NMatD0=    1 NMtDS0=    0 NMtDT0=    0
 Petite list used in FoFCou.
 Requested convergence on RMS density matrix=1.00D-08 within 128 cycles.
 Requested convergence on MAX density matrix=1.00D-06.
 Requested convergence on             energy=1.00D-06.
 No special actions if energy rises.
 Integral accuracy reduced to 1.0D-05 until final iterations.
 EnCoef did     1 forward-backward iterations
 Initial convergence to 1.0D-05 achieved.  Increase integral accuracy.
 SCF Done:  E(RB3LYP) =  -1492.29995019     A.U. after   17 cycles
            NFock= 17  Conv=0.73D-08     -V/T= 2.0082

 **********************************************************************

            Population analysis using the SCF density.

 **********************************************************************

 Orbital symmetries:
       Occupied  (A) (A) (A) (A) (A) (A) (A) (A) (A) (A) (A) (A)
                 (A) (A) (A) (A) (A) (A) (A) (A) (A) (A) (A) (A)
                 (A) (A) (A) (A) (A) (A) (A) (A) (A) (A) (A) (A)
                 (A) (A) (A) (A) (A) (A) (A) (A) (A) (A) (A) (A)
                 (A) (A) (A) (A) (A) (A) (A) (A) (A) (A) (A) (A)
                 (A) (A) (A) (A) (A) (A) (A) (A) (A) (A) (A) (A)
                 (A) (A) (A) (A) (A) (A) (A) (A) (A) (A) (A) (A)
                 (A) (A) (A) (A) (A) (A) (A) (A) (A) (A) (A) (A)
                 (A) (A) (A) (A) (A) (A) (A) (A) (A) (A) (A) (A)
       Virtual   (A) (A) (A) (A) (A) (A) (A) (A) (A) (A) (A) (A)
                 (A) (A) (A) (A) (A) (A) (A) (A) (A) (A) (A) (A)
                 (A) (A) (A) (A) (A) (A) (A) (A) (A) (A) (A) (A)
                 (A) (A) (A) (A) (A) (A) (A) (A) (A) (A) (A) (A)
                 (A) (A) (A) (A) (A) (A) (A) (A) (A) (A) (A) (A)
                 (A) (A) (A) (A) (A) (A) (A) (A) (A) (A) (A) (A)
                 (A) (A) (A) (A) (A) (A) (A) (A) (A) (A) (A) (A)
                 (A) (A) (A) (A) (A) (A) (A) (A) (A) (A) (A) (A)
                 (A) (A) (A) (A) (A) (A) (A) (A) (A) (A) (A) (A)
                 (A) (A) (A) (A) (A) (A) (A) (A) (A) (A) (A) (A)
                 (A) (A) (A) (A) (A) (A) (A) (A) (A) (A) (A) (A)
                 (A) (A) (A) (A) (A) (A) (A) (A) (A) (A) (A) (A)
                 (A) (A) (A) (A) (A) (A) (A) (A) (A) (A) (A) (A)
                 (A) (A) (A) (A) (A) (A) (A) (A) (A) (A) (A) (A)
                 (A) (A) (A) (A) (A) (A) (A) (A) (A) (A) (A) (A)
                 (A) (A) (A) (A) (A) (A) (A) (A) (A) (A) (A) (A)
                 (A) (A) (A) (A) (A) (A)
 The electronic state is 1-A.
 Alpha  occ. eigenvalues --  -24.60416 -24.59773 -24.56875 -19.07250 -19.01750
 Alpha  occ. eigenvalues --  -18.99806 -14.35131 -14.27614 -14.24098 -10.25765
 Alpha  occ. eigenvalues --  -10.25463 -10.25298 -10.21542 -10.21309 -10.20152
 Alpha  occ. eigenvalues --  -10.20040 -10.20015 -10.19350 -10.18421 -10.17537
 Alpha  occ. eigenvalues --  -10.17143 -10.16411 -10.15871 -10.15762 -10.15612
 Alpha  occ. eigenvalues --  -10.14652 -10.14533 -10.14384 -10.13867 -10.12061
 Alpha  occ. eigenvalues --   -1.24383  -1.23808  -1.20517  -1.09889  -1.02691
 Alpha  occ. eigenvalues --   -1.01409  -1.00682  -0.96894  -0.91636  -0.91318
 Alpha  occ. eigenvalues --   -0.87111  -0.82984  -0.80407  -0.79585  -0.78935
 Alpha  occ. eigenvalues --   -0.77793  -0.76339  -0.72201  -0.70046  -0.68604
 Alpha  occ. eigenvalues --   -0.66952  -0.66504  -0.65611  -0.62647  -0.62003
 Alpha  occ. eigenvalues --   -0.61024  -0.59024  -0.58080  -0.56460  -0.56127
 Alpha  occ. eigenvalues --   -0.55219  -0.53895  -0.52624  -0.52009  -0.50651
 Alpha  occ. eigenvalues --   -0.49424  -0.49068  -0.48703  -0.48218  -0.47948
 Alpha  occ. eigenvalues --   -0.47413  -0.47063  -0.46919  -0.46246  -0.45945
 Alpha  occ. eigenvalues --   -0.45661  -0.44831  -0.44742  -0.44409  -0.43845
 Alpha  occ. eigenvalues --   -0.42875  -0.42178  -0.41613  -0.40986  -0.40335
 Alpha  occ. eigenvalues --   -0.39706  -0.38945  -0.38907  -0.38661  -0.38438
 Alpha  occ. eigenvalues --   -0.37448  -0.36927  -0.36605  -0.36286  -0.35477
 Alpha  occ. eigenvalues --   -0.35388  -0.35029  -0.34094  -0.29743  -0.29420
 Alpha  occ. eigenvalues --   -0.28421  -0.28165  -0.26511  -0.26279  -0.22481
 Alpha  occ. eigenvalues --   -0.22424  -0.21928  -0.19913
 Alpha virt. eigenvalues --   -0.04672  -0.04505  -0.03504  -0.03151   0.01157
 Alpha virt. eigenvalues --    0.03919   0.05373   0.08772   0.09453   0.10172
 Alpha virt. eigenvalues --    0.11512   0.11751   0.11969   0.12408   0.12849
 Alpha virt. eigenvalues --    0.12902   0.13926   0.14985   0.15207   0.16019
 Alpha virt. eigenvalues --    0.16287   0.17037   0.17253   0.17858   0.17949
 Alpha virt. eigenvalues --    0.18585   0.18900   0.19780   0.20231   0.20692
 Alpha virt. eigenvalues --    0.21531   0.22080   0.22202   0.23382   0.24423
 Alpha virt. eigenvalues --    0.25140   0.26496   0.26787   0.27626   0.27942
 Alpha virt. eigenvalues --    0.28358   0.29370   0.30282   0.30513   0.30998
 Alpha virt. eigenvalues --    0.32263   0.35369   0.36131   0.37492   0.37775
 Alpha virt. eigenvalues --    0.40127   0.41355   0.42646   0.44367   0.49381
 Alpha virt. eigenvalues --    0.53295   0.54665   0.55370   0.58038   0.60768
 Alpha virt. eigenvalues --    0.63255   0.64601   0.65261   0.65961   0.66291
 Alpha virt. eigenvalues --    0.67394   0.68076   0.68462   0.69369   0.70282
 Alpha virt. eigenvalues --    0.70774   0.70941   0.71241   0.71714   0.72178
 Alpha virt. eigenvalues --    0.72603   0.73089   0.73273   0.73814   0.74187
 Alpha virt. eigenvalues --    0.74801   0.75290   0.75576   0.76057   0.76368
 Alpha virt. eigenvalues --    0.76863   0.77560   0.77955   0.78789   0.79570
 Alpha virt. eigenvalues --    0.80030   0.80690   0.81265   0.82442   0.83431
 Alpha virt. eigenvalues --    0.84711   0.85582   0.86066   0.87323   0.88443
 Alpha virt. eigenvalues --    0.90589   0.92243   0.93442   0.94962   0.95069
 Alpha virt. eigenvalues --    0.95699   0.98088   0.98829   0.99597   1.00473
 Alpha virt. eigenvalues --    1.01250   1.02401   1.03552   1.04240   1.05155
 Alpha virt. eigenvalues --    1.05826   1.06623   1.07412   1.07792   1.08691
 Alpha virt. eigenvalues --    1.09182   1.09778   1.11223   1.11524   1.13169
 Alpha virt. eigenvalues --    1.14229   1.15166   1.16579   1.17597   1.18878
 Alpha virt. eigenvalues --    1.22994   1.25165   1.27189   1.30229   1.32984
 Alpha virt. eigenvalues --    1.34556   1.34760   1.35967   1.37401   1.37972
 Alpha virt. eigenvalues --    1.40417   1.41140   1.42588   1.43853   1.45868
 Alpha virt. eigenvalues --    1.47114   1.48072   1.49261   1.50759   1.51269
 Alpha virt. eigenvalues --    1.52074   1.53038   1.56946   1.58079   1.58364
 Alpha virt. eigenvalues --    1.60696   1.61124   1.62213   1.65016   1.66525
 Alpha virt. eigenvalues --    1.69629   1.71406   1.72786   1.75433   1.79255
 Alpha virt. eigenvalues --    1.81425   1.84390   1.85391   1.87649   1.87939
 Alpha virt. eigenvalues --    1.88191   1.90220   1.90836   1.93021   1.94386
 Alpha virt. eigenvalues --    1.98331   2.00459   2.00933   2.02027   2.02543
 Alpha virt. eigenvalues --    2.05704   2.07727   2.12709   2.15419   2.19268
 Alpha virt. eigenvalues --    2.24168   2.38766   2.43877   2.57309   2.70783
 Alpha virt. eigenvalues --    2.86601   3.04273   3.15014   3.43313   3.56149
 Alpha virt. eigenvalues --    3.87874   3.98719   4.00842
          Condensed to atoms (all electrons):
               1          2          3          4          5          6
     1  N    7.252186   0.279722  -0.064667  -0.003701   0.270848  -0.059261
     2  C    0.279722   5.235800   0.241237  -0.063413  -0.079337  -0.012056
     3  C   -0.064667   0.241237   5.293959   0.294809  -0.003345  -0.079422
     4  N   -0.003701  -0.063413   0.294809   6.983479  -0.061284   0.263942
     5  C    0.270848  -0.079337  -0.003345  -0.061284   5.282138   0.216526
     6  C   -0.059261  -0.012056  -0.079422   0.263942   0.216526   5.403703
     7  H   -0.000232   0.004962  -0.041804   0.324244   0.005452  -0.048467
     8  H   -0.029258   0.364695  -0.038957   0.002196   0.003426   0.000000
     9  H   -0.048413   0.353052  -0.066427   0.003918  -0.004223  -0.000794
    10  H   -0.042531  -0.001912  -0.001094   0.002668   0.346806  -0.062115
    11  H   -0.026708   0.003346  -0.000097   0.002317   0.358109  -0.038835
    12  H    0.001715   0.000247  -0.005142  -0.052058  -0.066600   0.335761
    13  H    0.002840  -0.031305   0.358204  -0.032723  -0.000165   0.004677
    14  H    0.000168  -0.057721   0.322566  -0.047357  -0.000406  -0.006466
    15  O    0.000000   0.000000   0.000000   0.000000   0.000000   0.000000
    16  O    0.000000   0.000000   0.000000   0.000000   0.000000   0.000000
    17  O    0.000000   0.000000   0.000000   0.000000   0.000000   0.000000
    18  N   -0.000004   0.000000   0.000000   0.000000   0.000000   0.000000
    19  C   -0.065403  -0.002254   0.000145   0.000018   0.001790   0.000177
    20  C    0.004988   0.000055  -0.000006   0.000000  -0.000072  -0.000001
    21  C   -0.000342   0.000007   0.000000   0.000000  -0.000013   0.000000
    22  C    0.000000   0.000000   0.000000   0.000000   0.000000   0.000000
    23  C    0.000000   0.000000   0.000000   0.000000   0.000000   0.000000
    24  C    0.000000   0.000000   0.000000   0.000000   0.000000   0.000000
    25  C    0.004453  -0.000071   0.000002   0.000000   0.000381   0.000010
    26  C    0.314757  -0.057755   0.001012  -0.000073  -0.057978   0.001985
    27  C    0.002865   0.000067   0.004679  -0.055532  -0.057635   0.263760
    28  C   -0.083453   0.000402  -0.000157  -0.000005  -0.000923   0.000289
    29  C    0.000000   0.000000   0.000000   0.000000   0.000000   0.000000
    30  H    0.000000   0.000000   0.000000   0.000000   0.000000   0.000000
    31  H   -0.000010   0.000000   0.000000   0.000000   0.000000   0.000000
    32  H   -0.000016  -0.000021  -0.000017   0.003609  -0.006219  -0.042727
    33  H   -0.000046   0.000002  -0.000042  -0.001816   0.004056  -0.036995
    34  H   -0.000004   0.000008  -0.000123   0.002550  -0.002811  -0.039218
    35  H    0.000000   0.000000   0.000000   0.000000   0.000000   0.000000
    36  C    0.000000   0.000000   0.000000   0.000000   0.000000   0.000000
    37  C    0.000000   0.000000   0.000000   0.000000   0.000000   0.000000
    38  C    0.000001  -0.000011  -0.000001   0.000000   0.000000   0.000000
    39  C    0.000000   0.000000   0.000000   0.000000   0.000000   0.000000
    40  C    0.000000   0.000000   0.000000   0.000000   0.000000   0.000000
    41  C    0.000000  -0.000001   0.000000   0.000000   0.000000   0.000000
    42  H    0.000000   0.000000   0.000000   0.000000   0.000000   0.000000
    43  H    0.000000   0.000000   0.000000   0.000000   0.000000   0.000000
    44  F   -0.002995  -0.000044   0.000000   0.000000   0.004616   0.000079
    45  H   -0.006587   0.001034  -0.000010  -0.000024  -0.000002  -0.000027
    46  F    0.000000   0.000000   0.000000   0.000000   0.000000   0.000000
    47  H    0.000000   0.000000   0.000000   0.000000   0.000000   0.000000
    48  F    0.000000  -0.000006   0.000000   0.000000   0.000000   0.000000
               7          8          9         10         11         12
     1  N   -0.000232  -0.029258  -0.048413  -0.042531  -0.026708   0.001715
     2  C    0.004962   0.364695   0.353052  -0.001912   0.003346   0.000247
     3  C   -0.041804  -0.038957  -0.066427  -0.001094  -0.000097  -0.005142
     4  N    0.324244   0.002196   0.003918   0.002668   0.002317  -0.052058
     5  C    0.005452   0.003426  -0.004223   0.346806   0.358109  -0.066600
     6  C   -0.048467   0.000000  -0.000794  -0.062115  -0.038835   0.335761
     7  H    0.493547  -0.000104  -0.000207  -0.000213  -0.000110  -0.001999
     8  H   -0.000104   0.513412  -0.019575   0.000060  -0.000071   0.000073
     9  H   -0.000207  -0.019575   0.550854   0.008753   0.000101   0.000324
    10  H   -0.000213   0.000060   0.008753   0.556169  -0.021343   0.005425
    11  H   -0.000110  -0.000071   0.000101  -0.021343   0.511288   0.001126
    12  H   -0.001999   0.000073   0.000324   0.005425   0.001126   0.644887
    13  H   -0.003800  -0.000997  -0.000437   0.000053   0.000003  -0.000162
    14  H   -0.002089   0.000700   0.005433   0.000198   0.000075   0.012008
    15  O    0.000000   0.000000   0.000000   0.000000   0.000000   0.000000
    16  O    0.000000   0.000000   0.000000   0.000000   0.000000   0.000000
    17  O    0.000000   0.000000   0.000000   0.000000   0.000000   0.000000
    18  N    0.000000   0.000000   0.000000   0.000000   0.000000   0.000000
    19  C    0.000001   0.002196  -0.000018  -0.000136   0.000185  -0.000167
    20  C    0.000000  -0.000073   0.000005   0.000002   0.000008   0.000005
    21  C    0.000000  -0.000005   0.000000   0.000000  -0.000012   0.000000
    22  C    0.000000   0.000000   0.000000   0.000000   0.000000   0.000000
    23  C    0.000000   0.000000   0.000000   0.000000   0.000000   0.000000
    24  C    0.000000   0.000000   0.000000   0.000000   0.000000   0.000000
    25  C    0.000000  -0.000013  -0.000003  -0.000013  -0.000036  -0.000002
    26  C    0.000001  -0.003039   0.002271   0.001319  -0.006113   0.001023
    27  C   -0.005270   0.000003   0.000020   0.000569  -0.001652  -0.045781
    28  C    0.000000   0.000215   0.000329   0.000538   0.000711   0.000037
    29  C    0.000000   0.000000   0.000000   0.000000   0.000000   0.000000
    30  H    0.000000   0.000000   0.000000   0.000000   0.000000   0.000000
    31  H    0.000000   0.000000   0.000000   0.000000   0.000004   0.000000
    32  H   -0.000266   0.000000   0.000027   0.005310   0.000139   0.004602
    33  H    0.005169   0.000000  -0.000002  -0.000164  -0.000075  -0.003998
    34  H   -0.000033   0.000000   0.000002   0.000176   0.003219   0.001021
    35  H    0.000000   0.000000   0.000000   0.000000   0.000000   0.000000
    36  C    0.000000   0.000000   0.000000   0.000000   0.000000   0.000000
    37  C    0.000000   0.000001   0.000000   0.000000   0.000000   0.000000
    38  C    0.000000   0.000098   0.000000   0.000000   0.000000   0.000000
    39  C    0.000000   0.000000   0.000000   0.000000   0.000000   0.000000
    40  C    0.000000  -0.000001   0.000000   0.000000   0.000000   0.000000
    41  C    0.000000  -0.000013   0.000000   0.000000   0.000000   0.000000
    42  H    0.000000   0.000000   0.000000   0.000000   0.000000   0.000000
    43  H    0.000000   0.000002   0.000000   0.000000   0.000000   0.000000
    44  F    0.000000  -0.000001  -0.000003  -0.000062   0.005450   0.000000
    45  H   -0.000001   0.001231   0.000084   0.000004   0.000004   0.000158
    46  F    0.000000   0.000000   0.000000   0.000000   0.000000   0.000000
    47  H    0.000000   0.000000   0.000000   0.000000   0.000000   0.000000
    48  F    0.000000   0.000086   0.000000   0.000000   0.000000   0.000000
              13         14         15         16         17         18
     1  N    0.002840   0.000168   0.000000   0.000000   0.000000  -0.000004
     2  C   -0.031305  -0.057721   0.000000   0.000000   0.000000   0.000000
     3  C    0.358204   0.322566   0.000000   0.000000   0.000000   0.000000
     4  N   -0.032723  -0.047357   0.000000   0.000000   0.000000   0.000000
     5  C   -0.000165  -0.000406   0.000000   0.000000   0.000000   0.000000
     6  C    0.004677  -0.006466   0.000000   0.000000   0.000000   0.000000
     7  H   -0.003800  -0.002089   0.000000   0.000000   0.000000   0.000000
     8  H   -0.000997   0.000700   0.000000   0.000000   0.000000   0.000000
     9  H   -0.000437   0.005433   0.000000   0.000000   0.000000   0.000000
    10  H    0.000053   0.000198   0.000000   0.000000   0.000000   0.000000
    11  H    0.000003   0.000075   0.000000   0.000000   0.000000   0.000000
    12  H   -0.000162   0.012008   0.000000   0.000000   0.000000   0.000000
    13  H    0.543884  -0.036437   0.000000   0.000000   0.000000   0.000000
    14  H   -0.036437   0.646754   0.000000   0.000000   0.000000   0.000000
    15  O    0.000000   0.000000   8.070766  -0.000681  -0.000001  -0.000023
    16  O    0.000000   0.000000  -0.000681   8.228249  -0.061845  -0.000001
    17  O    0.000000   0.000000  -0.000001  -0.061845   8.142328   0.000096
    18  N    0.000000   0.000000  -0.000023  -0.000001   0.000096   7.522974
    19  C    0.000004  -0.000490   0.000003   0.000000   0.000000  -0.044501
    20  C    0.000000   0.000011   0.003287  -0.000002   0.000001   0.171424
    21  C    0.000000   0.000000  -0.125810   0.000106  -0.000013  -0.028605
    22  C    0.000000   0.000000   0.003370   0.003242   0.004782   0.238621
    23  C    0.000000   0.000000  -0.112116  -0.092638  -0.113082  -0.014620
    24  C    0.000000   0.000000   0.636746   0.001832   0.001756  -0.034427
    25  C    0.000000   0.000000   0.004479   0.000000   0.000000   0.005565
    26  C   -0.000013   0.000392  -0.000006   0.000000   0.000000   0.004441
    27  C   -0.000071  -0.000054   0.000000   0.000000   0.000000   0.000000
    28  C    0.000001   0.000012   0.000627   0.000000   0.000000  -0.000395
    29  C    0.000000   0.000000  -0.003955   0.219811   0.515769   0.004428
    30  H    0.000000   0.000000  -0.000003   0.000256   0.020714  -0.032857
    31  H    0.000000   0.000000   0.013921   0.000000   0.000000  -0.000010
    32  H    0.000000   0.000018   0.000000   0.000000   0.000000   0.000000
    33  H   -0.000002  -0.000027   0.000000   0.000000   0.000000   0.000000
    34  H    0.000001   0.000010   0.000000   0.000000   0.000000   0.000000
    35  H    0.000000   0.000000   0.000163   0.239430   0.004888   0.000000
    36  C    0.000000   0.000001   0.000000   0.000000   0.000000  -0.000354
    37  C    0.000000   0.000008   0.000000   0.000000   0.000000   0.004497
    38  C    0.000000   0.000001   0.000000   0.000000   0.000000  -0.082724
    39  C    0.000000   0.000000   0.000000   0.000000   0.000000   0.004197
    40  C    0.000000   0.000000   0.000000   0.000000   0.000000  -0.057570
    41  C    0.000000  -0.000002   0.000000   0.000000   0.000005   0.284455
    42  H    0.000000   0.000000   0.000000   0.000000   0.000000  -0.000012
    43  H    0.000000   0.000000   0.000000   0.000000   0.000000  -0.000009
    44  F    0.000000   0.000000   0.000000   0.000000   0.000000   0.000000
    45  H   -0.000008   0.002721   0.000000   0.000000   0.000000  -0.007643
    46  F    0.000000   0.000000   0.000000   0.000000   0.000000   0.000000
    47  H    0.000000   0.000000   0.000000   0.000000   0.000000  -0.004360
    48  F    0.000000   0.000000   0.000000   0.000000   0.000000  -0.002867
              19         20         21         22         23         24
     1  N   -0.065403   0.004988  -0.000342   0.000000   0.000000   0.000000
     2  C   -0.002254   0.000055   0.000007   0.000000   0.000000   0.000000
     3  C    0.000145  -0.000006   0.000000   0.000000   0.000000   0.000000
     4  N    0.000018   0.000000   0.000000   0.000000   0.000000   0.000000
     5  C    0.001790  -0.000072  -0.000013   0.000000   0.000000   0.000000
     6  C    0.000177  -0.000001   0.000000   0.000000   0.000000   0.000000
     7  H    0.000001   0.000000   0.000000   0.000000   0.000000   0.000000
     8  H    0.002196  -0.000073  -0.000005   0.000000   0.000000   0.000000
     9  H   -0.000018   0.000005   0.000000   0.000000   0.000000   0.000000
    10  H   -0.000136   0.000002   0.000000   0.000000   0.000000   0.000000
    11  H    0.000185   0.000008  -0.000012   0.000000   0.000000   0.000000
    12  H   -0.000167   0.000005   0.000000   0.000000   0.000000   0.000000
    13  H    0.000004   0.000000   0.000000   0.000000   0.000000   0.000000
    14  H   -0.000490   0.000011   0.000000   0.000000   0.000000   0.000000
    15  O    0.000003   0.003287  -0.125810   0.003370  -0.112116   0.636746
    16  O    0.000000  -0.000002   0.000106   0.003242  -0.092638   0.001832
    17  O    0.000000   0.000001  -0.000013   0.004782  -0.113082   0.001756
    18  N   -0.044501   0.171424  -0.028605   0.238621  -0.014620  -0.034427
    19  C    5.404238   0.336531  -0.040650   0.001797  -0.000677   0.005768
    20  C    0.336531   5.115388   0.292214  -0.063421  -0.021255  -0.002163
    21  C   -0.040650   0.292214   6.057007  -0.010717  -0.172035  -0.024550
    22  C    0.001797  -0.063421  -0.010717   5.127771   0.305938  -0.027411
    23  C   -0.000677  -0.021255  -0.172035   0.305938   6.417906  -0.040308
    24  C    0.005768  -0.002163  -0.024550  -0.027411  -0.040308   5.180450
    25  C   -0.040573  -0.062601   0.219817  -0.001203   0.014169  -0.073854
    26  C    0.283387  -0.003901  -0.038172  -0.000065  -0.000015  -0.000941
    27  C   -0.000004   0.000000   0.000000   0.000000   0.000000   0.000000
    28  C   -0.033051  -0.041175  -0.014390   0.000010   0.000019   0.009025
    29  C   -0.000003  -0.000525   0.005357  -0.091940   0.072261  -0.034712
    30  H   -0.000047   0.002916  -0.000505   0.363902  -0.053859   0.002589
    31  H   -0.000420   0.003543  -0.054627  -0.000051   0.001165   0.000611
    32  H    0.000000   0.000000   0.000000   0.000000   0.000000   0.000000
    33  H    0.000000   0.000000   0.000000   0.000000   0.000000   0.000000
    34  H    0.000000   0.000000   0.000000   0.000000   0.000000   0.000000
    35  H    0.000000   0.000000   0.000004  -0.000309   0.012401  -0.000077
    36  C    0.000005  -0.000010   0.000000   0.000001   0.000000   0.000000
    37  C   -0.000504   0.000253   0.000001  -0.000005  -0.000001   0.000000
    38  C   -0.004161   0.004783   0.000201   0.000052  -0.000078   0.000013
    39  C    0.000016  -0.000063   0.000000   0.000083   0.000001   0.000000
    40  C    0.000101   0.001288  -0.000047  -0.002231   0.000130   0.000001
    41  C   -0.002131  -0.061254   0.001739  -0.065113   0.001842   0.000063
    42  H    0.000000   0.000000   0.000000   0.000000   0.000000   0.000000
    43  H   -0.000002   0.000002   0.000000   0.000001   0.000000   0.000000
    44  F    0.002425  -0.000215   0.003012   0.000000   0.000000  -0.000004
    45  H    0.384553  -0.046845   0.004643   0.000019   0.000006  -0.000004
    46  F    0.000000   0.000000   0.000000   0.000000   0.000000   0.000000
    47  H   -0.000075   0.000236   0.000003   0.001594  -0.000027  -0.000001
    48  F    0.000876   0.002952   0.000026   0.000037  -0.000009   0.000004
              25         26         27         28         29         30
     1  N    0.004453   0.314757   0.002865  -0.083453   0.000000   0.000000
     2  C   -0.000071  -0.057755   0.000067   0.000402   0.000000   0.000000
     3  C    0.000002   0.001012   0.004679  -0.000157   0.000000   0.000000
     4  N    0.000000  -0.000073  -0.055532  -0.000005   0.000000   0.000000
     5  C    0.000381  -0.057978  -0.057635  -0.000923   0.000000   0.000000
     6  C    0.000010   0.001985   0.263760   0.000289   0.000000   0.000000
     7  H    0.000000   0.000001  -0.005270   0.000000   0.000000   0.000000
     8  H   -0.000013  -0.003039   0.000003   0.000215   0.000000   0.000000
     9  H   -0.000003   0.002271   0.000020   0.000329   0.000000   0.000000
    10  H   -0.000013   0.001319   0.000569   0.000538   0.000000   0.000000
    11  H   -0.000036  -0.006113  -0.001652   0.000711   0.000000   0.000000
    12  H   -0.000002   0.001023  -0.045781   0.000037   0.000000   0.000000
    13  H    0.000000  -0.000013  -0.000071   0.000001   0.000000   0.000000
    14  H    0.000000   0.000392  -0.000054   0.000012   0.000000   0.000000
    15  O    0.004479  -0.000006   0.000000   0.000627  -0.003955  -0.000003
    16  O    0.000000   0.000000   0.000000   0.000000   0.219811   0.000256
    17  O    0.000000   0.000000   0.000000   0.000000   0.515769   0.020714
    18  N    0.005565   0.004441   0.000000  -0.000395   0.004428  -0.032857
    19  C   -0.040573   0.283387  -0.000004  -0.033051  -0.000003  -0.000047
[...]
    16  O    0.000000   0.000000   0.000000   0.000000   0.222848   0.000282
    17  O    0.000000   0.000000   0.000000   0.000000   0.518069   0.022220
    18  N    0.005468   0.004625   0.000000  -0.000362   0.004638  -0.032772
    19  C   -0.044641   0.291143  -0.000002  -0.014884  -0.000003  -0.000050
    20  C   -0.064287  -0.004928   0.000000  -0.044783  -0.000566   0.002847
    21  C    0.239146  -0.039866   0.000000  -0.020515   0.005804  -0.000531
    22  C   -0.001230  -0.000073   0.000000   0.000010  -0.097274   0.363388
    23  C    0.015172  -0.000014   0.000000   0.000012   0.062567  -0.057423
    24  C   -0.075913  -0.000968   0.000000   0.009301  -0.036562   0.002780
    25  C    5.696382  -0.085113   0.000000   0.192400   0.000000   0.000000
    26  C   -0.085113   5.300632  -0.000004   0.150959   0.000000   0.000000
    27  C    0.000000  -0.000004   5.357582  -0.000007   0.000000   0.000000
    28  C    0.192400   0.150959  -0.000007   5.245631   0.000000   0.000000
    29  C    0.000000   0.000000   0.000000   0.000000   4.687130   0.000425
    30  H    0.000000   0.000000   0.000000   0.000000   0.000425   0.432405
    31  H    0.370145   0.004964   0.000000  -0.034476   0.000005   0.000000
    32  H    0.000000   0.000002   0.357099   0.000000   0.000000   0.000000
    33  H    0.000000   0.000000   0.363271   0.000000   0.000000   0.000000
    34  H    0.000000   0.000004   0.357593  -0.000003   0.000000   0.000000
    35  H    0.000000   0.000000   0.000000   0.000000  -0.028575  -0.000016
    36  C    0.000000   0.000000   0.000000   0.000000   0.000000  -0.000004
    37  C    0.000000  -0.000003   0.000000   0.000000   0.000000  -0.000014
    38  C   -0.000002   0.000020   0.000000  -0.000004   0.000000   0.000272
    39  C    0.000000   0.000000   0.000000   0.000000   0.000000  -0.000013
    40  C    0.000000  -0.000005   0.000000   0.000000  -0.000004   0.001165
    41  C   -0.000092   0.000043   0.000000   0.000003  -0.000040   0.000028
    42  H    0.000000   0.000000   0.000000   0.000000   0.000000   0.000000
    43  H    0.000000   0.000000   0.000000   0.000000   0.000000   0.000000
    44  F   -0.057508  -0.060046   0.000001   0.301586   0.000000   0.000000
    45  H   -0.000476  -0.044650   0.000000   0.004190   0.000000   0.000003
    46  F    0.000000   0.000000   0.000000   0.000000   0.000000   0.000000
    47  H    0.000000   0.000000   0.000000   0.000000   0.000005   0.000378
    48  F   -0.000001  -0.000136   0.000000  -0.000001   0.000000  -0.000001
              31         32         33         34         35         36
     1  N   -0.000011  -0.000015  -0.000040  -0.000003   0.000000   0.000000
     2  C    0.000000  -0.000026   0.000002   0.000007   0.000000   0.000000
     3  C    0.000000  -0.000018  -0.000050  -0.000109   0.000000   0.000000
     4  N    0.000000   0.004102  -0.001344   0.002478   0.000000   0.000000
     5  C   -0.000001  -0.006228   0.003762  -0.002341   0.000000   0.000000
     6  C    0.000000  -0.042429  -0.035566  -0.039849   0.000000   0.000000
     7  H    0.000000  -0.000275   0.004205  -0.000041   0.000000   0.000000
     8  H    0.000000   0.000000   0.000000   0.000000   0.000000  -0.000001
     9  H    0.000000   0.000034  -0.000002   0.000002   0.000000   0.000000
    10  H    0.000000   0.005618  -0.000164   0.000230   0.000000   0.000000
    11  H    0.000008   0.000170  -0.000074   0.002853   0.000000   0.000000
    12  H    0.000000   0.004524  -0.003739   0.001143   0.000000   0.000000
    13  H    0.000000  -0.000001  -0.000002   0.000001   0.000000   0.000000
    14  H    0.000000   0.000019  -0.000019   0.000008   0.000000   0.000000
    15  O    0.016358   0.000000   0.000000   0.000000   0.000215   0.000000
    16  O    0.000000   0.000000   0.000000   0.000000   0.237293   0.000000
    17  O    0.000000   0.000000   0.000000   0.000000   0.004287   0.000000
    18  N   -0.000011   0.000000   0.000000   0.000000   0.000000  -0.000310
    19  C   -0.000399   0.000000   0.000000   0.000000   0.000000   0.000001
    20  C    0.003649   0.000000   0.000000   0.000000   0.000000  -0.000007
    21  C   -0.057198   0.000000   0.000000   0.000000   0.000005   0.000000
    22  C   -0.000060   0.000000   0.000000   0.000000  -0.000294   0.000003
    23  C    0.001398   0.000000   0.000000   0.000000   0.011752   0.000000
    24  C    0.000711   0.000000   0.000000   0.000000  -0.000050   0.000000
    25  C    0.370145   0.000000   0.000000   0.000000   0.000000   0.000000
    26  C    0.004964   0.000002   0.000000   0.000004   0.000000   0.000000
    27  C    0.000000   0.357099   0.363271   0.357593   0.000000   0.000000
    28  C   -0.034476   0.000000   0.000000  -0.000003   0.000000   0.000000
    29  C    0.000005   0.000000   0.000000   0.000000  -0.028575   0.000000
    30  H    0.000000   0.000000   0.000000   0.000000  -0.000016  -0.000004
    31  H    0.456841   0.000000   0.000000   0.000000   0.000000   0.000000
    32  H    0.000000   0.522847  -0.028018  -0.022624   0.000000   0.000000
    33  H    0.000000  -0.028018   0.538290  -0.026812   0.000000   0.000000
    34  H    0.000000  -0.022624  -0.026812   0.533864   0.000000   0.000000
    35  H    0.000000   0.000000   0.000000   0.000000   0.414735   0.000000
    36  C    0.000000   0.000000   0.000000   0.000000   0.000000   5.099181
    37  C    0.000000   0.000000   0.000000   0.000000   0.000000   0.145185
    38  C    0.000000   0.000000   0.000000   0.000000   0.000000   0.032783
    39  C    0.000000   0.000000   0.000000   0.000000   0.000000   0.239076
    40  C    0.000000   0.000000   0.000000   0.000000   0.000000  -0.020862
    41  C    0.000001   0.000000   0.000000   0.000000   0.000000  -0.040934
    42  H    0.000000   0.000000   0.000000   0.000000   0.000000  -0.047254
    43  H    0.000000   0.000000   0.000000   0.000000   0.000000  -0.045361
    44  F   -0.001833   0.000000   0.000000  -0.000003   0.000000   0.000000
    45  H    0.000001   0.000000   0.000000   0.000000   0.000000   0.000021
    46  F    0.000000   0.000000   0.000000   0.000000   0.000000   0.326470
    47  H    0.000000   0.000000   0.000000   0.000000   0.000000   0.003685
    48  F    0.000000   0.000000   0.000000   0.000000   0.000000   0.002263
              37         38         39         40         41         42
     1  N    0.000000   0.000001   0.000000   0.000000   0.000000   0.000000
     2  C    0.000024  -0.000001   0.000000   0.000000   0.000010   0.000000
     3  C    0.000000  -0.000005   0.000000   0.000000  -0.000003   0.000000
     4  N    0.000000   0.000000   0.000000   0.000000   0.000000   0.000000
     5  C    0.000000   0.000000   0.000000   0.000000   0.000000   0.000000
     6  C    0.000000   0.000000   0.000000   0.000000   0.000000   0.000000
     7  H    0.000000   0.000000   0.000000   0.000000   0.000000   0.000000
     8  H   -0.000131   0.000378   0.000001  -0.000006  -0.000064   0.000000
     9  H    0.000000   0.000000   0.000000   0.000000   0.000000   0.000000
    10  H    0.000000   0.000000   0.000000   0.000000   0.000000   0.000000
    11  H    0.000000   0.000000   0.000000   0.000000   0.000000   0.000000
    12  H    0.000000   0.000000   0.000000   0.000000   0.000000   0.000000
    13  H    0.000000   0.000001   0.000000   0.000000   0.000000   0.000000
    14  H    0.000008  -0.000001   0.000000   0.000001   0.000007   0.000000
    15  O    0.000000   0.000000   0.000000   0.000000   0.000000   0.000000
    16  O    0.000000   0.000000   0.000000   0.000000   0.000000   0.000000
    17  O    0.000000   0.000000   0.000000  -0.000001   0.000005   0.000000
    18  N    0.004220  -0.070996   0.004308  -0.058365   0.273827  -0.000013
    19  C   -0.000369  -0.004164   0.000019  -0.000054  -0.002258   0.000000
    20  C    0.000226   0.003794  -0.000081   0.001608  -0.052160   0.000000
    21  C    0.000002   0.000229   0.000000  -0.000042   0.001775   0.000000
    22  C   -0.000041  -0.000079   0.000109  -0.003286  -0.063164  -0.000001
    23  C    0.000000  -0.000113   0.000000   0.000234   0.001815   0.000000
    24  C    0.000000   0.000005   0.000000  -0.000004   0.000055   0.000000
    25  C    0.000000  -0.000002   0.000000   0.000000  -0.000092   0.000000
    26  C   -0.000003   0.000020   0.000000  -0.000005   0.000043   0.000000
    27  C    0.000000   0.000000   0.000000   0.000000   0.000000   0.000000
    28  C    0.000000  -0.000004   0.000000   0.000000   0.000003   0.000000
    29  C    0.000000   0.000000   0.000000  -0.000004  -0.000040   0.000000
    30  H   -0.000014   0.000272  -0.000013   0.001165   0.000028   0.000000
    31  H    0.000000   0.000000   0.000000   0.000000   0.000001   0.000000
    32  H    0.000000   0.000000   0.000000   0.000000   0.000000   0.000000
    33  H    0.000000   0.000000   0.000000   0.000000   0.000000   0.000000
    34  H    0.000000   0.000000   0.000000   0.000000   0.000000   0.000000
    35  H    0.000000   0.000000   0.000000   0.000000   0.000000   0.000000
    36  C    0.145185   0.032783   0.239076  -0.020862  -0.040934  -0.047254
    37  C    5.940984   0.121255  -0.116264  -0.025439  -0.097214   0.005518
    38  C    0.121255   5.249063  -0.034630  -0.020625   0.136121  -0.000611
    39  C   -0.116264  -0.034630   5.569630   0.295366  -0.036655   0.385808
    40  C   -0.025439  -0.020625   0.295366   5.316268   0.321544  -0.035568
    41  C   -0.097214   0.136121  -0.036655   0.321544   5.426708   0.004315
    42  H    0.005518  -0.000611   0.385808  -0.035568   0.004315   0.463551
    43  H    0.380706  -0.046043   0.005340  -0.000867   0.005727  -0.000017
    44  F    0.000000   0.000000   0.000000   0.000000   0.000000   0.000000
    45  H   -0.000002  -0.002264  -0.000007   0.000251   0.002902   0.000000
    46  F   -0.055690   0.002393  -0.057645   0.002485  -0.000203  -0.002082
    47  H   -0.000390   0.004140  -0.033833   0.392671  -0.043725  -0.003964
    48  F   -0.057776   0.327442  -0.000207   0.002181  -0.067937   0.000000
              43         44         45         46         47         48
     1  N    0.000000  -0.002096  -0.009036   0.000000   0.000000   0.000003
     2  C   -0.000002  -0.000023   0.000396   0.000000   0.000000  -0.000594
     3  C    0.000000   0.000000   0.000774   0.000000   0.000000   0.000003
     4  N    0.000000   0.000000  -0.000035   0.000000   0.000000   0.000000
     5  C    0.000000  -0.008514   0.000032   0.000000   0.000000   0.000000
     6  C    0.000000   0.000113  -0.000018   0.000000   0.000000   0.000000
     7  H    0.000000   0.000000   0.000000   0.000000   0.000000   0.000000
     8  H    0.000039   0.000000   0.001158   0.000000   0.000000   0.004948
     9  H    0.000000  -0.000001   0.000119   0.000000   0.000000  -0.000001
    10  H    0.000000  -0.000021   0.000000   0.000000   0.000000   0.000000
    11  H    0.000000   0.030707   0.000001   0.000000   0.000000   0.000000
    12  H    0.000000   0.000003   0.000053   0.000000   0.000000   0.000000
    13  H    0.000000   0.000000  -0.000048   0.000000   0.000000   0.000000
    14  H    0.000000   0.000000   0.003852   0.000000   0.000000  -0.000002
    15  O    0.000000   0.000000   0.000000   0.000000   0.000000   0.000000
    16  O    0.000000   0.000000   0.000000   0.000000   0.000000   0.000000
    17  O    0.000000   0.000000   0.000000   0.000000   0.000001   0.000000
    18  N   -0.000010   0.000000  -0.008413   0.000000  -0.005641  -0.002069
    19  C   -0.000004   0.002276   0.388349   0.000000  -0.000051   0.003188
    20  C    0.000001  -0.000199  -0.049815   0.000000   0.000156   0.001433
    21  C    0.000000   0.002779   0.005101   0.000000   0.000004   0.000058
    22  C    0.000001   0.000000   0.000006   0.000000   0.002635  -0.000048
    23  C    0.000000   0.000000   0.000007   0.000000  -0.000016  -0.000002
    24  C    0.000000  -0.000004  -0.000008   0.000000  -0.000003   0.000001
    25  C    0.000000  -0.057508  -0.000476   0.000000   0.000000  -0.000001
    26  C    0.000000  -0.060046  -0.044650   0.000000   0.000000  -0.000136
    27  C    0.000000   0.000001   0.000000   0.000000   0.000000   0.000000
    28  C    0.000000   0.301586   0.004190   0.000000   0.000000  -0.000001
    29  C    0.000000   0.000000   0.000000   0.000000   0.000005   0.000000
    30  H    0.000000   0.000000   0.000003   0.000000   0.000378  -0.000001
    31  H    0.000000  -0.001833   0.000001   0.000000   0.000000   0.000000
    32  H    0.000000   0.000000   0.000000   0.000000   0.000000   0.000000
    33  H    0.000000   0.000000   0.000000   0.000000   0.000000   0.000000
    34  H    0.000000  -0.000003   0.000000   0.000000   0.000000   0.000000
    35  H    0.000000   0.000000   0.000000   0.000000   0.000000   0.000000
    36  C   -0.045361   0.000000   0.000021   0.326470   0.003685   0.002263
    37  C    0.380706   0.000000  -0.000002  -0.055690  -0.000390  -0.057776
    38  C   -0.046043   0.000000  -0.002264   0.002393   0.004140   0.327442
    39  C    0.005340   0.000000  -0.000007  -0.057645  -0.033833  -0.000207
    40  C   -0.000867   0.000000   0.000251   0.002485   0.392671   0.002181
    41  C    0.005727   0.000000   0.002902  -0.000203  -0.043725  -0.067937
    42  H   -0.000017   0.000000   0.000000  -0.002082  -0.003964   0.000000
    43  H    0.459013   0.000000   0.000000  -0.002313  -0.000001  -0.002112
    44  F    0.000000   9.079169   0.000000   0.000000   0.000000   0.000000
    45  H    0.000000   0.000000   0.503285   0.000000  -0.000008  -0.000722
    46  F   -0.002313   0.000000   0.000000   9.068205  -0.000001   0.000000
    47  H   -0.000001   0.000000  -0.000008  -0.000001   0.451499   0.000000
    48  F   -0.002112   0.000000  -0.000722   0.000000   0.000000   9.061527
 Mulliken charges:
               1
     1  N   -0.686876
     2  C   -0.197230
     3  C   -0.229256
     4  N   -0.560123
     5  C   -0.194252
     6  C   -0.073975
     7  H    0.272766
     8  H    0.205159
     9  H    0.225506
    10  H    0.210634
    11  H    0.225197
    12  H    0.173749
    13  H    0.197619
    14  H    0.172758
    15  O   -0.494883
    16  O   -0.538931
    17  O   -0.516717
    18  N   -0.937131
    19  C   -0.205673
    20  C    0.362881
    21  C   -0.074994
    22  C    0.206391
    23  C   -0.209271
    24  C    0.404542
    25  C   -0.198119
    26  C    0.327704
    27  C   -0.545413
    28  C    0.284253
    29  C    0.665648
    30  H    0.264629
    31  H    0.239906
    32  H    0.205219
    33  H    0.186299
    34  H    0.193602
    35  H    0.360648
    36  C    0.306064
    37  C   -0.244796
    38  C    0.301643
    39  C   -0.220321
    40  C   -0.168649
    41  C    0.229561
    42  H    0.230317
    43  H    0.245903
    44  F   -0.286385
    45  H    0.205000
    46  F   -0.281620
    47  H    0.232459
    48  F   -0.271442
 Sum of Mulliken charges =   0.00000
 Mulliken charges with hydrogens summed into heavy atoms:
               1
     1  N   -0.686876
     2  C    0.233435
     3  C    0.141121
     4  N   -0.287356
     5  C    0.241579
     6  C    0.099773
    15  O   -0.494883
    16  O   -0.178283
    17  O   -0.516717
    18  N   -0.937131
    19  C   -0.000673
    20  C    0.362881
    21  C   -0.074994
    22  C    0.471021
    23  C   -0.209271
    24  C    0.404542
    25  C    0.041788
    26  C    0.327704
    27  C    0.039706
    28  C    0.284253
    29  C    0.665648
    36  C    0.306064
    37  C    0.001106
    38  C    0.301643
    39  C    0.009997
    40  C    0.063810
    41  C    0.229561
    44  F   -0.286385
    46  F   -0.281620
    48  F   -0.271442
 Electronic spatial extent (au):  <R**2>=          13543.6051
 Charge=              0.0000 electrons
 Dipole moment (field-independent basis, Debye):
    X=             -3.7798    Y=              6.0446    Z=             -1.9955  Tot=              7.4031
 Quadrupole moment (field-independent basis, Debye-Ang):
   XX=           -166.9269   YY=           -180.8576   ZZ=           -166.6651
   XY=              4.2855   XZ=              2.1126   YZ=             -0.1103
 Traceless Quadrupole moment (field-independent basis, Debye-Ang):
   XX=              4.5563   YY=             -9.3744   ZZ=              4.8181
   XY=              4.2855   XZ=              2.1126   YZ=             -0.1103
 Octapole moment (field-independent basis, Debye-Ang**2):
  XXX=            -24.7932  YYY=             57.5002  ZZZ=              3.2260  XYY=            -20.0013
  XXY=            -21.8458  XXZ=            -36.1221  XZZ=              4.3350  YZZ=             21.3158
  YYZ=             -1.7282  XYZ=             -9.8547
 Hexadecapole moment (field-independent basis, Debye-Ang**3):
 XXXX=          -9941.2980 YYYY=          -6486.8149 ZZZZ=           -741.2947 XXXY=           -437.6255
 XXXZ=            147.6258 YYYX=             74.6439 YYYZ=             23.2087 ZZZX=            -33.9287
 ZZZY=             -8.1711 XXYY=          -2562.6123 XXZZ=          -1738.3790 YYZZ=          -1043.6120
 XXYZ=             -9.3892 YYXZ=            -49.1324 ZZXY=             -1.5709
 N-N= 2.932079478807D+03 E-N=-9.351433646546D+03  KE= 1.480143553717D+03
 1\1\GINC-NODE038\FOpt\RB3LYP\3-21G\C21H18F3N3O3\SUPERCOMPUTO1\06-Jul-2
 020\0\\# opt b3lyp/3-21g geom=connectivity\\Title Card Required\\0,1\N
 ,7.9680786471,5.0328216816,8.1072410857\C,9.217026958,5.1390498703,8.8
 891093161\C,8.8887575978,5.3808725296,10.3754048403\N,8.0361832211,4.2
 525336924,10.8231039406\C,7.098996204,3.933526808,8.5918443984\C,6.752
 264056,4.1590542875,10.0789903008\H,7.8733396224,4.2810715675,11.83498
 93857\H,9.8524604529,5.9203828465,8.4651902491\H,9.7334109473,4.174777
 9476,8.8154183705\H,7.6563061988,2.992250833,8.5159826366\H,6.20447293
 55,3.8842902774,7.9789941879\H,6.1592365632,5.0900687778,10.1475367678
 \H,9.8110225558,5.379763376,10.9660802377\H,8.4005373514,6.3673596917,
 10.4786644129\O,5.4664718525,9.0050908495,3.749727273\O,5.8561316268,1
 1.6018965024,3.0518656081\O,7.3242600848,12.8412841811,4.2824913059\N,
 8.2585544002,9.7051678361,6.7399743273\C,8.0129388017,7.3812745937,7.4
 835970812\C,7.6861587344,8.4162622332,6.6067070953\C,6.7495129912,8.20
 25801823,5.5824553816\C,7.8826905767,10.6930742886,5.8671655606\C,6.97
 41819429,10.5395666273,4.8626472929\C,6.3119570688,9.2509256829,4.6315
 289464\C,6.1887592699,6.9237743602,5.4591473805\C,7.5100073416,6.08110
 34407,7.3289971356\C,5.9421381174,2.977040523,10.62839875\C,6.56283542
 63,5.8983307391,6.2833873548\C,6.7586158901,11.7615603098,4.0700376514
 \H,8.3605991638,11.6574527524,5.9879678465\H,5.4722633225,6.7631722748
 ,4.6644105605\H,6.5407548348,2.063772708,10.554491688\H,5.6854697514,3
 .1401198762,11.6818636048\H,5.0118070331,2.8495216611,10.0648602487\H,
 5.7839407208,12.4775733441,2.5798009244\C,11.0840197664,10.7478649416,
 9.7051997071\C,11.3393526858,9.6705954113,8.8687989825\C,10.4119451398
 ,9.3215284796,7.9011750042\C,9.9004686421,11.4671854565,9.5967499191\C
 ,8.9662911572,11.0941776192,8.6357108387\C,9.208691081,10.0238019016,7
 .7687031472\H,9.7161117227,12.2973962257,10.2632430027\H,12.2610294113
 ,9.1150027942,8.95516142\F,6.013796501,4.6452953237,6.0879625483\H,8.6
 604210048,7.5890618194,8.3171363884\F,12.0071486415,11.0939799537,10.6
 476523738\H,8.0299312676,11.6301479743,8.5518909707\F,10.6710507162,8.
 2476229457,7.0959425496\\Version=ES64L-G09RevD.01\State=1-A\HF=-1492.3
 102853\RMSD=4.719e-09\RMSF=5.881e-06\Dipole=1.05634,-0.1366096,2.71085
 2\Quadrupole=-1.4519724,3.065653,-1.6136807,0.2656828,-6.2784304,-1.58
 81013\PG=C01 [X(C21H18F3N3O3)]\\@


 Children are likely to live up to what you believe of them.
 -- Lady Bird Johnson
 Job cpu time:       0 days  1 hours 54 minutes 18.8 seconds.
 File lengths (MBytes):  RWF=     61 Int=      0 D2E=      0 Chk=      9 Scr=      1
 Normal termination of Gaussian 09 at Mon Jul  6 12:40:16 2020.
