 Entering Gaussian System, Link 0=g09
 Input=pazufloxacina.gjf
 Output=pazufloxacina.log
 Initial command:
 /usr/local/cluster_programs/g09/l1.exe "/tmp/scratch/64204.prometeo/Gau-30047.inp" -scrdir="/tmp/scratch/64204.prometeo/"
 Entering Link 1 = /usr/local/cluster_programs/g09/l1.exe PID=     30048.
  
 Copyright (c) 1988,1990,1992,1993,1995,1998,2003,2009,2013,
            Gaussian, Inc.  All Rights Reserved.
  
 This is part of the Gaussian(R) 09 program.  It is based on
 the Gaussian(R) 03 system (copyright 2003, Gaussian, Inc.),
 the Gaussian(R) 98 system (copyright 1998, Gaussian, Inc.),
 the Gaussian(R) 94 system (copyright 1995, Gaussian, Inc.),
 the Gaussian 92(TM) system (copyright 1992, Gaussian, Inc.),
 the Gaussian 90(TM) system (copyright 1990, Gaussian, Inc.),
 the Gaussian 88(TM) system (copyright 1988, Gaussian, Inc.),
 the Gaussian 86(TM) system (copyright 1986, Carnegie Mellon
 University), and the Gaussian 82(TM) system (copyright 1983,
 Carnegie Mellon University). Gaussian is a federally registered
 trademark of Gaussian, Inc.
  
 This software contains proprietary and confidential information,
 including trade secrets, belonging to Gaussian, Inc.
  
 This software is provided under written license and may be
 used, copied, transmitted, or stored only in accord with that
 written license.
  
 The following legend is applicable only to US Government
 contracts under FAR:
  
                    RESTRICTED RIGHTS LEGEND
  
 Use, reproduction and disclosure by the US Government is
 subject to restrictions as set forth in subparagraphs (a)
 and (c) of the Commercial Computer Software - Restricted
 Rights clause in FAR 52.227-19.
  
 Gaussian, Inc.
 340 Quinnipiac St., Bldg. 40, Wallingford CT 06492
  
  
 ---------------------------------------------------------------
 Warning -- This program may not be used in any manner that
 competes with the business of Gaussian, Inc. or will provide
 assistance to any competitor of Gaussian, Inc.  The licensee
 of this program is prohibited from giving any competitor of
 Gaussian, Inc. access to this program.  By using this program,
 the user acknowledges that Gaussian, Inc. is engaged in the
 business of creating and licensing software in the field of
 computational chemistry and represents and warrants to the
 licensee that it is not a competitor of Gaussian, Inc. and that
 it will not use this program in any manner prohibited above.
 ---------------------------------------------------------------
  

 Cite this work as:
 Gaussian 09, Revision D.01,
 M. J. Frisch, G. W. Trucks, H. B. Schlegel, G. E. Scuseria, 
 M. A. Robb, J. R. Cheeseman, G. Scalmani, V. Barone, B. Mennucci, 
 G. A. Petersson, H. Nakatsuji, M. Caricato, X. Li, H. P. Hratchian, 
 A. F. Izmaylov, J. Bloino, G. Zheng, J. L. Sonnenberg, M. Hada, 
 M. Ehara, K. Toyota, R. Fukuda, J. Hasegawa, M. Ishida, T. Nakajima, 
 Y. Honda, O. Kitao, H. Nakai, T. Vreven, J. A. Montgomery, Jr., 
 J. E. Peralta, F. Ogliaro, M. Bearpark, J. J. Heyd, E. Brothers, 
 K. N. Kudin, V. N. Staroverov, T. Keith, R. Kobayashi, J. Normand, 
 K. Raghavachari, A. Rendell, J. C. Burant, S. S. Iyengar, J. Tomasi, 
 M. Cossi, N. Rega, J. M. Millam, M. Klene, J. E. Knox, J. B. Cross, 
 V. Bakken, C. Adamo, J. Jaramillo, R. Gomperts, R. E. Stratmann, 
 O. Yazyev, A. J. Austin, R. Cammi, C. Pomelli, J. W. Ochterski, 
 R. L. Martin, K. Morokuma, V. G. Zakrzewski, G. A. Voth, 
 P. Salvador, J. J. Dannenberg, S. Dapprich, A. D. Daniels, 
 O. Farkas, J. B. Foresman, J. V. Ortiz, J. Cioslowski, 
 and D. J. Fox, Gaussian, Inc., Wallingford CT, 2013.
 
 ******************************************
 Gaussian 09:  ES64L-G09RevD.01 24-Apr-2013
                21-Jul-2020 
 ******************************************
 %nprocshared=20
 Will use up to   20 processors via shared memory.
 -----------------------------------------------------
 #opt M06/lanl2dz integral=ultrafine geom=connectivity
 -----------------------------------------------------
 1/14=-1,18=20,19=15,26=4,38=1,57=2/1,3;
 2/9=110,12=2,17=6,18=5,40=1/2;
 3/5=6,6=3,11=2,16=1,25=1,30=1,71=1,74=-54,75=-5/1,2,3;
 4//1;
 5/5=2,38=5/2;
 6/7=2,8=2,9=2,10=2,28=1/1;
 7//1,2,3,16;
 1/14=-1,18=20,19=15,26=4/3(2);
 2/9=110/2;
 99//99;
 2/9=110/2;
 3/5=6,6=3,11=2,16=1,25=1,30=1,71=1,74=-54,75=-5/1,2,3;
 4/5=5,16=3,69=1/1;
 5/5=2,38=5/2;
 7//1,2,3,16;
 1/14=-1,18=20,19=15,26=4/3(-5);
 2/9=110/2;
 6/7=2,8=2,9=2,10=2,19=2,28=1/1;
 99/9=1/99;
 -------------------
 Title Card Required
 -------------------
 Symbolic Z-matrix:
 Charge =  0 Multiplicity = 1
 F(PDBName=F1,ResName=MOL,ResNum=1) 0     2.50282  -2.88896   0.38919  L 
 O(PDBName=O2,ResName=MOL,ResNum=1) 0     1.68371   1.80062  -0.19505  L 
 O(PDBName=O3,ResName=MOL,ResNum=1) 0    -2.46733  -2.60635   0.16142  L 
 O(PDBName=O4,ResName=MOL,ResNum=1) 0    -4.96099  -1.53562  -0.05231  L 
 O(PDBName=O5,ResName=MOL,ResNum=1) 0    -5.14364   0.72946  -0.26524  L 
 N(PDBName=N6,ResName=MOL,ResNum=1) 0     3.9492    0.74509   1.13799  L 
 N(PDBName=N7,ResName=MOL,ResNum=1) 0    -1.10704   1.28927  -0.15728  L 
 C(PDBName=C8,ResName=MOL,ResNum=1) 0     3.58514  -0.16119   0.06874  L 
 C(PDBName=C9,ResName=MOL,ResNum=1) 0     4.2175   -0.05011  -1.33855  L 
 C(PDBName=C10,ResName=MOL,ResNum=1) 0     4.61526  -1.17704  -0.3869   L 
 C(PDBName=C11,ResName=MOL,ResNum=1) 0     2.13085  -0.53669   0.08131  L 
 C(PDBName=C12,ResName=MOL,ResNum=1) 0     1.19918   0.49211  -0.05523  L 
 C(PDBName=C13,ResName=MOL,ResNum=1) 0    -0.18289   0.23869  -0.04787  L 
 C(PDBName=C14,ResName=MOL,ResNum=1) 0     1.63135  -1.83711   0.23592  L 
 C(PDBName=C15,ResName=MOL,ResNum=1) 0    -0.60252   2.6927   -0.13031  L 
 C(PDBName=C16,ResName=MOL,ResNum=1) 0    -0.64538  -1.08003   0.07116  L 
 C(PDBName=C17,ResName=MOL,ResNum=1) 0     0.73756   2.69675  -0.87986  L 
 C(PDBName=C18,ResName=MOL,ResNum=1) 0     0.27888  -2.11294   0.21181  L 
 C(PDBName=C19,ResName=MOL,ResNum=1) 0    -2.43272   1.01263  -0.17513  L 
 C(PDBName=C20,ResName=MOL,ResNum=1) 0    -2.10042  -1.42156   0.05714  L 
 C(PDBName=C21,ResName=MOL,ResNum=1) 0    -0.43681   3.1864    1.31689  L 
 C(PDBName=C22,ResName=MOL,ResNum=1) 0    -2.96221  -0.24813  -0.08778  L 
 C(PDBName=C23,ResName=MOL,ResNum=1) 0    -4.43081  -0.27554  -0.14553  L 
 H(PDBName=H24,ResName=MOL,ResNum=1) 0     4.9272    0.75666  -1.48367  L 
 H(PDBName=H25,ResName=MOL,ResNum=1) 0     3.60477  -0.30158  -2.19614  L 
 H(PDBName=H26,ResName=MOL,ResNum=1) 0     4.27533  -2.17911  -0.59193  L 
 H(PDBName=H27,ResName=MOL,ResNum=1) 0     5.59144  -1.10857   0.0815   L 
 H(PDBName=H28,ResName=MOL,ResNum=1) 0     3.60319   1.69117   0.97333  L 
 H(PDBName=H29,ResName=MOL,ResNum=1) 0     4.93873   0.71567   1.38092  L 
 H(PDBName=H30,ResName=MOL,ResNum=1) 0    -1.32535   3.30741  -0.67544  L 
 H(PDBName=H31,ResName=MOL,ResNum=1) 0     0.59751   2.36734  -1.91507  L 
 H(PDBName=H32,ResName=MOL,ResNum=1) 0     1.19847   3.68401  -0.85206  L 
 H(PDBName=H33,ResName=MOL,ResNum=1) 0    -0.0921   -3.12321   0.31339  L 
 H(PDBName=H34,ResName=MOL,ResNum=1) 0    -3.11594   1.84978  -0.26674  L 
 H(PDBName=H35,ResName=MOL,ResNum=1) 0     0.34997   2.6111    1.81023  L 
 H(PDBName=H36,ResName=MOL,ResNum=1) 0    -0.15416   4.24472   1.3173   L 
 H(PDBName=H37,ResName=MOL,ResNum=1) 0    -1.37229   3.07069   1.87072  L 
 H(PDBName=H38,ResName=MOL,ResNum=1) 0    -5.95302  -1.44441  -0.09943  L 
 
 Center=      0.42453779      0.39721297     -0.01364642
 Residue   1 PDB Number     1_0 MOL charge    0.00000000 layers R        AvRTP=      0.00000000    315.00000000     90.00000000

 GradGradGradGradGradGradGradGradGradGradGradGradGradGradGradGradGradGrad
 Berny optimization.
 Initialization pass.
                           ----------------------------
                           !    Initial Parameters    !
                           ! (Angstroms and Degrees)  !
 --------------------------                            --------------------------
 ! Name  Definition              Value          Derivative Info.                !
 --------------------------------------------------------------------------------
 ! R1    R(1,14)                 1.3745         estimate D2E/DX2                !
 ! R2    R(2,12)                 1.4023         estimate D2E/DX2                !
 ! R3    R(2,17)                 1.4721         estimate D2E/DX2                !
 ! R4    R(3,20)                 1.2447         estimate D2E/DX2                !
 ! R5    R(4,23)                 1.3702         estimate D2E/DX2                !
 ! R6    R(4,38)                 0.9973         estimate D2E/DX2                !
 ! R7    R(5,23)                 1.2379         estimate D2E/DX2                !
 ! R8    R(6,8)                  1.4482         estimate D2E/DX2                !
 ! R9    R(6,28)                 1.0207         estimate D2E/DX2                !
 ! R10   R(6,29)                 1.0193         estimate D2E/DX2                !
 ! R11   R(7,13)                 1.4035         estimate D2E/DX2                !
 ! R12   R(7,15)                 1.4916         estimate D2E/DX2                !
 ! R13   R(7,19)                 1.3544         estimate D2E/DX2                !
 ! R14   R(8,9)                  1.5468         estimate D2E/DX2                !
 ! R15   R(8,10)                 1.5168         estimate D2E/DX2                !
 ! R16   R(8,11)                 1.502          estimate D2E/DX2                !
 ! R17   R(9,10)                 1.5277         estimate D2E/DX2                !
 ! R18   R(9,24)                 1.0843         estimate D2E/DX2                !
 ! R19   R(9,25)                 1.0836         estimate D2E/DX2                !
 ! R20   R(10,26)                1.0778         estimate D2E/DX2                !
 ! R21   R(10,27)                1.0849         estimate D2E/DX2                !
 ! R22   R(11,12)                1.3947         estimate D2E/DX2                !
 ! R23   R(11,14)                1.4016         estimate D2E/DX2                !
 ! R24   R(12,13)                1.4051         estimate D2E/DX2                !
 ! R25   R(13,16)                1.4025         estimate D2E/DX2                !
 ! R26   R(14,18)                1.3805         estimate D2E/DX2                !
 ! R27   R(15,17)                1.5355         estimate D2E/DX2                !
 ! R28   R(15,21)                1.5381         estimate D2E/DX2                !
 ! R29   R(15,30)                1.0943         estimate D2E/DX2                !
 ! R30   R(16,18)                1.3932         estimate D2E/DX2                !
 ! R31   R(16,20)                1.4946         estimate D2E/DX2                !
 ! R32   R(17,31)                1.0954         estimate D2E/DX2                !
 ! R33   R(17,32)                1.0899         estimate D2E/DX2                !
 ! R34   R(18,33)                1.081          estimate D2E/DX2                !
 ! R35   R(19,22)                1.3702         estimate D2E/DX2                !
 ! R36   R(19,34)                1.0844         estimate D2E/DX2                !
 ! R37   R(20,22)                1.4631         estimate D2E/DX2                !
 ! R38   R(21,35)                1.0924         estimate D2E/DX2                !
 ! R39   R(21,36)                1.0954         estimate D2E/DX2                !
 ! R40   R(21,37)                1.0933         estimate D2E/DX2                !
 ! R41   R(22,23)                1.47           estimate D2E/DX2                !
 ! A1    A(12,2,17)            113.0989         estimate D2E/DX2                !
 ! A2    A(23,4,38)            107.3107         estimate D2E/DX2                !
 ! A3    A(8,6,28)             112.0688         estimate D2E/DX2                !
 ! A4    A(8,6,29)             113.6999         estimate D2E/DX2                !
 ! A5    A(28,6,29)            113.22           estimate D2E/DX2                !
 ! A6    A(13,7,15)            118.6966         estimate D2E/DX2                !
 ! A7    A(13,7,19)            119.5158         estimate D2E/DX2                !
 ! A8    A(15,7,19)            121.5674         estimate D2E/DX2                !
 ! A9    A(6,8,9)              121.6024         estimate D2E/DX2                !
 ! A10   A(6,8,10)             118.0467         estimate D2E/DX2                !
 ! A11   A(6,8,11)             113.1834         estimate D2E/DX2                !
 ! A12   A(9,8,11)             114.922          estimate D2E/DX2                !
 ! A13   A(10,8,11)            119.5139         estimate D2E/DX2                !
 ! A14   A(8,9,24)             116.282          estimate D2E/DX2                !
 ! A15   A(8,9,25)             118.1773         estimate D2E/DX2                !
 ! A16   A(10,9,24)            117.506          estimate D2E/DX2                !
 ! A17   A(10,9,25)            117.9725         estimate D2E/DX2                !
 ! A18   A(24,9,25)            115.9055         estimate D2E/DX2                !
 ! A19   A(8,10,26)            117.7492         estimate D2E/DX2                !
 ! A20   A(8,10,27)            116.0472         estimate D2E/DX2                !
 ! A21   A(9,10,26)            119.0264         estimate D2E/DX2                !
 ! A22   A(9,10,27)            117.1718         estimate D2E/DX2                !
 ! A23   A(26,10,27)           115.1242         estimate D2E/DX2                !
 ! A24   A(8,11,12)            117.4879         estimate D2E/DX2                !
 ! A25   A(8,11,14)            125.3045         estimate D2E/DX2                !
 ! A26   A(12,11,14)           117.2026         estimate D2E/DX2                !
 ! A27   A(2,12,11)            117.8571         estimate D2E/DX2                !
 ! A28   A(2,12,13)            120.5742         estimate D2E/DX2                !
 ! A29   A(11,12,13)           121.568          estimate D2E/DX2                !
 ! A30   A(7,13,12)            120.8142         estimate D2E/DX2                !
 ! A31   A(7,13,16)            119.5582         estimate D2E/DX2                !
 ! A32   A(12,13,16)           119.6276         estimate D2E/DX2                !
 ! A33   A(1,14,11)            119.7586         estimate D2E/DX2                !
 ! A34   A(1,14,18)            118.0459         estimate D2E/DX2                !
 ! A35   A(11,14,18)           122.1807         estimate D2E/DX2                !
 ! A36   A(7,15,17)            106.7895         estimate D2E/DX2                !
 ! A37   A(7,15,21)            110.8223         estimate D2E/DX2                !
 ! A38   A(7,15,30)            107.2233         estimate D2E/DX2                !
 ! A39   A(17,15,21)           111.3734         estimate D2E/DX2                !
 ! A40   A(17,15,30)           109.3802         estimate D2E/DX2                !
 ! A41   A(21,15,30)           111.0742         estimate D2E/DX2                !
 ! A42   A(13,16,18)           119.1376         estimate D2E/DX2                !
 ! A43   A(13,16,20)           122.3482         estimate D2E/DX2                !
 ! A44   A(18,16,20)           118.5139         estimate D2E/DX2                !
 ! A45   A(2,17,15)            109.4046         estimate D2E/DX2                !
 ! A46   A(2,17,31)            109.8006         estimate D2E/DX2                !
 ! A47   A(2,17,32)            105.5299         estimate D2E/DX2                !
 ! A48   A(15,17,31)           110.4246         estimate D2E/DX2                !
 ! A49   A(15,17,32)           111.0398         estimate D2E/DX2                !
 ! A50   A(31,17,32)           110.523          estimate D2E/DX2                !
 ! A51   A(14,18,16)           120.2363         estimate D2E/DX2                !
 ! A52   A(14,18,33)           121.4183         estimate D2E/DX2                !
 ! A53   A(16,18,33)           118.3406         estimate D2E/DX2                !
 ! A54   A(7,19,22)            124.4263         estimate D2E/DX2                !
 ! A55   A(7,19,34)            117.395          estimate D2E/DX2                !
 ! A56   A(22,19,34)           118.1786         estimate D2E/DX2                !
 ! A57   A(3,20,16)            120.2445         estimate D2E/DX2                !
 ! A58   A(3,20,22)            126.7336         estimate D2E/DX2                !
 ! A59   A(16,20,22)           113.0219         estimate D2E/DX2                !
 ! A60   A(15,21,35)           109.4802         estimate D2E/DX2                !
 ! A61   A(15,21,36)           109.7714         estimate D2E/DX2                !
 ! A62   A(15,21,37)           110.5174         estimate D2E/DX2                !
 ! A63   A(35,21,36)           108.8323         estimate D2E/DX2                !
 ! A64   A(35,21,37)           109.3754         estimate D2E/DX2                !
 ! A65   A(36,21,37)           108.8358         estimate D2E/DX2                !
 ! A66   A(19,22,20)           121.1078         estimate D2E/DX2                !
 ! A67   A(19,22,23)           113.6228         estimate D2E/DX2                !
 ! A68   A(20,22,23)           125.2682         estimate D2E/DX2                !
 ! A69   A(4,23,5)             122.0292         estimate D2E/DX2                !
 ! A70   A(4,23,22)            113.6425         estimate D2E/DX2                !
 ! A71   A(5,23,22)            124.3283         estimate D2E/DX2                !
 ! D1    D(17,2,12,11)         155.6002         estimate D2E/DX2                !
 ! D2    D(17,2,12,13)         -24.7002         estimate D2E/DX2                !
 ! D3    D(12,2,17,15)          56.1686         estimate D2E/DX2                !
 ! D4    D(12,2,17,31)         -65.1678         estimate D2E/DX2                !
 ! D5    D(12,2,17,32)         175.703          estimate D2E/DX2                !
 ! D6    D(38,4,23,5)           -0.0465         estimate D2E/DX2                !
 ! D7    D(38,4,23,22)         179.8866         estimate D2E/DX2                !
 ! D8    D(28,6,8,9)            69.8707         estimate D2E/DX2                !
 ! D9    D(28,6,8,10)          139.9226         estimate D2E/DX2                !
 ! D10   D(28,6,8,11)          -73.4225         estimate D2E/DX2                !
 ! D11   D(29,6,8,9)           -60.1142         estimate D2E/DX2                !
 ! D12   D(29,6,8,10)            9.9377         estimate D2E/DX2                !
 ! D13   D(29,6,8,11)          156.5926         estimate D2E/DX2                !
 ! D14   D(15,7,13,12)          -6.6635         estimate D2E/DX2                !
 ! D15   D(15,7,13,16)         173.2924         estimate D2E/DX2                !
 ! D16   D(19,7,13,12)         178.6422         estimate D2E/DX2                !
 ! D17   D(19,7,13,16)          -1.4019         estimate D2E/DX2                !
 ! D18   D(13,7,15,17)          36.6954         estimate D2E/DX2                !
 ! D19   D(13,7,15,21)         -84.7723         estimate D2E/DX2                !
 ! D20   D(13,7,15,30)         153.8513         estimate D2E/DX2                !
 ! D21   D(19,7,15,17)        -148.7239         estimate D2E/DX2                !
 ! D22   D(19,7,15,21)          89.8084         estimate D2E/DX2                !
 ! D23   D(19,7,15,30)         -31.568          estimate D2E/DX2                !
 ! D24   D(13,7,19,22)           0.2418         estimate D2E/DX2                !
 ! D25   D(13,7,19,34)        -179.6438         estimate D2E/DX2                !
 ! D26   D(15,7,19,22)        -174.2955         estimate D2E/DX2                !
 ! D27   D(15,7,19,34)           5.8189         estimate D2E/DX2                !
 ! D28   D(6,8,9,24)            -1.4427         estimate D2E/DX2                !
 ! D29   D(6,8,9,25)          -146.259          estimate D2E/DX2                !
 ! D30   D(11,8,9,24)          141.2657         estimate D2E/DX2                !
 ! D31   D(11,8,9,25)           -3.5505         estimate D2E/DX2                !
 ! D32   D(6,8,10,26)          138.2407         estimate D2E/DX2                !
 ! D33   D(6,8,10,27)           -4.0506         estimate D2E/DX2                !
 ! D34   D(11,8,10,26)          -6.2638         estimate D2E/DX2                !
 ! D35   D(11,8,10,27)        -148.5551         estimate D2E/DX2                !
 ! D36   D(6,8,11,12)           60.3733         estimate D2E/DX2                !
 ! D37   D(6,8,11,14)         -118.7879         estimate D2E/DX2                !
 ! D38   D(9,8,11,12)          -85.4773         estimate D2E/DX2                !
 ! D39   D(9,8,11,14)           95.3615         estimate D2E/DX2                !
 ! D40   D(10,8,11,12)        -153.5076         estimate D2E/DX2                !
 ! D41   D(10,8,11,14)          27.3312         estimate D2E/DX2                !
 ! D42   D(24,9,10,26)        -146.7593         estimate D2E/DX2                !
 ! D43   D(24,9,10,27)          -0.5942         estimate D2E/DX2                !
 ! D44   D(25,9,10,26)          -0.22           estimate D2E/DX2                !
 ! D45   D(25,9,10,27)         145.9451         estimate D2E/DX2                !
 ! D46   D(8,11,12,2)            0.0385         estimate D2E/DX2                !
 ! D47   D(8,11,12,13)        -179.658          estimate D2E/DX2                !
 ! D48   D(14,11,12,2)         179.2688         estimate D2E/DX2                !
 ! D49   D(14,11,12,13)         -0.4276         estimate D2E/DX2                !
 ! D50   D(8,11,14,1)           -0.1437         estimate D2E/DX2                !
 ! D51   D(8,11,14,18)        -178.7171         estimate D2E/DX2                !
 ! D52   D(12,11,14,1)        -179.3071         estimate D2E/DX2                !
 ! D53   D(12,11,14,18)          2.1195         estimate D2E/DX2                !
 ! D54   D(2,12,13,7)           -1.0844         estimate D2E/DX2                !
 ! D55   D(2,12,13,16)         178.9598         estimate D2E/DX2                !
 ! D56   D(11,12,13,7)         178.6039         estimate D2E/DX2                !
 ! D57   D(11,12,13,16)         -1.352          estimate D2E/DX2                !
 ! D58   D(7,13,16,18)        -178.4575         estimate D2E/DX2                !
 ! D59   D(7,13,16,20)           1.3456         estimate D2E/DX2                !
 ! D60   D(12,13,16,18)          1.4989         estimate D2E/DX2                !
 ! D61   D(12,13,16,20)       -178.698          estimate D2E/DX2                !
 ! D62   D(1,14,18,16)         179.4023         estimate D2E/DX2                !
 ! D63   D(1,14,18,33)           0.2158         estimate D2E/DX2                !
 ! D64   D(11,14,18,16)         -2.0009         estimate D2E/DX2                !
 ! D65   D(11,14,18,33)        178.8126         estimate D2E/DX2                !
 ! D66   D(7,15,17,2)          -60.6271         estimate D2E/DX2                !
 ! D67   D(7,15,17,31)          60.3312         estimate D2E/DX2                !
 ! D68   D(7,15,17,32)        -176.7079         estimate D2E/DX2                !
 ! D69   D(21,15,17,2)          60.4908         estimate D2E/DX2                !
 ! D70   D(21,15,17,31)       -178.5509         estimate D2E/DX2                !
 ! D71   D(21,15,17,32)        -55.59           estimate D2E/DX2                !
 ! D72   D(30,15,17,2)        -176.3482         estimate D2E/DX2                !
 ! D73   D(30,15,17,31)        -55.3899         estimate D2E/DX2                !
 ! D74   D(30,15,17,32)         67.571          estimate D2E/DX2                !
 ! D75   D(7,15,21,35)          65.7246         estimate D2E/DX2                !
 ! D76   D(7,15,21,36)        -174.8691         estimate D2E/DX2                !
 ! D77   D(7,15,21,37)         -54.8135         estimate D2E/DX2                !
 ! D78   D(17,15,21,35)        -53.0067         estimate D2E/DX2                !
 ! D79   D(17,15,21,36)         66.3997         estimate D2E/DX2                !
 ! D80   D(17,15,21,37)       -173.5448         estimate D2E/DX2                !
 ! D81   D(30,15,21,35)       -175.1944         estimate D2E/DX2                !
 ! D82   D(30,15,21,36)        -55.788          estimate D2E/DX2                !
 ! D83   D(30,15,21,37)         64.2675         estimate D2E/DX2                !
 ! D84   D(13,16,18,14)          0.1302         estimate D2E/DX2                !
 ! D85   D(13,16,18,33)        179.3415         estimate D2E/DX2                !
 ! D86   D(20,16,18,14)       -179.6805         estimate D2E/DX2                !
 ! D87   D(20,16,18,33)         -0.4692         estimate D2E/DX2                !
 ! D88   D(13,16,20,3)         179.7723         estimate D2E/DX2                !
 ! D89   D(13,16,20,22)         -0.1591         estimate D2E/DX2                !
 ! D90   D(18,16,20,3)          -0.4234         estimate D2E/DX2                !
 ! D91   D(18,16,20,22)        179.6451         estimate D2E/DX2                !
 ! D92   D(7,19,22,20)           1.0096         estimate D2E/DX2                !
 ! D93   D(7,19,22,23)        -179.3621         estimate D2E/DX2                !
 ! D94   D(34,19,22,20)       -179.1056         estimate D2E/DX2                !
 ! D95   D(34,19,22,23)          0.5227         estimate D2E/DX2                !
 ! D96   D(3,20,22,19)         179.0827         estimate D2E/DX2                !
 ! D97   D(3,20,22,23)          -0.5002         estimate D2E/DX2                !
 ! D98   D(16,20,22,19)         -0.9912         estimate D2E/DX2                !
 ! D99   D(16,20,22,23)        179.4259         estimate D2E/DX2                !
 ! D100  D(19,22,23,4)        -179.7296         estimate D2E/DX2                !
 ! D101  D(19,22,23,5)           0.2017         estimate D2E/DX2                !
 ! D102  D(20,22,23,4)          -0.1194         estimate D2E/DX2                !
 ! D103  D(20,22,23,5)         179.8119         estimate D2E/DX2                !
 --------------------------------------------------------------------------------
 Trust Radius=3.00D-01 FncErr=1.00D-07 GrdErr=1.00D-06
 Number of steps in this run=    225 maximum allowed number of steps=    228.
 GradGradGradGradGradGradGradGradGradGradGradGradGradGradGradGradGradGrad

                          Input orientation:                          
 ---------------------------------------------------------------------
 Center     Atomic      Atomic             Coordinates (Angstroms)
 Number     Number       Type             X           Y           Z
 ---------------------------------------------------------------------
      1          9           0        2.502815   -2.888963    0.389187
      2          8           0        1.683705    1.800621   -0.195052
      3          8           0       -2.467328   -2.606351    0.161424
      4          8           0       -4.960987   -1.535616   -0.052308
      5          8           0       -5.143640    0.729461   -0.265238
      6          7           0        3.949196    0.745092    1.137987
      7          7           0       -1.107040    1.289265   -0.157282
      8          6           0        3.585135   -0.161192    0.068742
      9          6           0        4.217504   -0.050108   -1.338552
     10          6           0        4.615260   -1.177044   -0.386903
     11          6           0        2.130854   -0.536688    0.081309
     12          6           0        1.199181    0.492111   -0.055229
     13          6           0       -0.182891    0.238691   -0.047873
     14          6           0        1.631345   -1.837108    0.235918
     15          6           0       -0.602516    2.692697   -0.130313
     16          6           0       -0.645378   -1.080031    0.071161
     17          6           0        0.737562    2.696745   -0.879855
     18          6           0        0.278875   -2.112936    0.211809
     19          6           0       -2.432717    1.012629   -0.175134
     20          6           0       -2.100416   -1.421558    0.057144
     21          6           0       -0.436805    3.186399    1.316894
     22          6           0       -2.962209   -0.248134   -0.087778
     23          6           0       -4.430815   -0.275544   -0.145528
     24          1           0        4.927200    0.756664   -1.483670
     25          1           0        3.604766   -0.301581   -2.196138
     26          1           0        4.275332   -2.179110   -0.591925
     27          1           0        5.591438   -1.108567    0.081496
     28          1           0        3.603189    1.691170    0.973326
     29          1           0        4.938727    0.715671    1.380921
     30          1           0       -1.325352    3.307407   -0.675439
     31          1           0        0.597514    2.367335   -1.915073
     32          1           0        1.198472    3.684007   -0.852060
     33          1           0       -0.092098   -3.123213    0.313388
     34          1           0       -3.115943    1.849779   -0.266741
     35          1           0        0.349968    2.611095    1.810234
     36          1           0       -0.154156    4.244722    1.317298
     37          1           0       -1.372292    3.070687    1.870723
     38          1           0       -5.953019   -1.444411   -0.099434
 ---------------------------------------------------------------------
                    Distance matrix (angstroms):
                    1          2          3          4          5
     1  F    0.000000
     2  O    4.796298   0.000000
     3  O    4.983379   6.064615   0.000000
     4  O    7.598342   7.436584   2.722222   0.000000
     5  O    8.484665   6.911219   4.297945   2.282384   0.000000
     6  N    3.982345   2.832593   7.304630   9.274146   9.200486
     7  N    5.548628   2.837458   4.138572   4.779527   4.076662
     8  C    2.952090   2.744765   6.528377   8.656783   8.780451
     9  C    3.739564   3.339600   7.312406   9.386472   9.454668
    10  C    2.827615   4.182979   7.246146   9.588797   9.944129
    11  C    2.401321   2.395690   5.043134   7.163094   7.391988
    12  C    3.650839   1.402324   4.805278   6.485318   6.350734
    13  C    4.145631   2.438333   3.654685   5.096900   4.989703
    14  C    1.374536   3.663543   4.170900   6.605514   7.262152
    15  C    6.408423   2.454954   5.625171   6.072972   4.949172
    16  C    3.644790   3.713981   2.378508   4.341346   4.860225
    17  C    5.993890   1.472134   6.283185   7.146410   6.231894
    18  C    2.362116   4.177920   2.790632   5.278182   6.140885
    19  C    6.316673   4.191212   3.634761   3.591767   2.727161
    20  C    4.842857   4.976506   1.244682   2.864935   3.740592
    21  C    6.812637   2.950072   6.246126   6.681344   5.540215
    22  C    6.088346   5.078722   2.422436   2.377810   2.397045
    23  C    7.429072   6.457575   3.063032   1.370239   1.237936
    24  H    4.761915   3.642889   8.288260  10.250833  10.144315
    25  H    3.820045   3.480528   6.909442   8.915771   9.018095
    26  H    2.146692   4.765742   6.798054   9.274420   9.863242
    27  H    3.578278   4.879573   8.197161  10.561910  10.896810
    28  H    4.746542   2.249779   7.481915   9.209190   8.886278
    29  H    4.462128   3.775709   8.208085  10.253135  10.215878
    30  H    7.360930   3.399353   6.080870   6.087775   4.625299
    31  H    6.047186   2.111740   6.200214   7.042716   6.193984
    32  H    6.815126   2.052865   7.350772   8.113138   7.021117
    33  H    2.606567   5.258909   2.435561   5.134226   6.379340
    34  H    7.379455   4.800435   4.523397   3.861485   2.316607
    35  H    6.074929   2.541042   6.154468   6.990745   6.166673
    36  H    7.668790   3.411534   7.322842   7.641580   6.305270
    37  H    7.261462   3.901232   6.029060   6.147748   4.926128
    38  H    8.592241   8.298128   3.683503   0.997330   2.325576
                    6          7          8          9         10
     6  N    0.000000
     7  N    5.247797   0.000000
     8  C    1.448163   4.916444   0.000000
     9  C    2.614876   5.616056   1.546838   0.000000
    10  C    2.542349   6.235393   1.516814   1.527688   0.000000
    11  C    2.462904   3.724914   1.502028   2.570384   2.607978
    12  C    3.008379   2.442238   2.476883   3.324333   3.816501
    13  C    4.328608   1.403470   3.790979   4.594859   5.014130
    14  C    3.585236   4.174634   2.579523   3.515756   3.118868
    15  C    5.110757   1.491608   5.071561   5.675862   6.501225
    16  C    5.057598   2.424640   4.329147   5.166784   5.281434
    17  C    4.265587   2.430158   4.144431   4.457084   5.503252
    18  C    4.743141   3.692148   3.842021   4.708681   4.476448
    19  C    6.521095   1.354351   6.136112   6.834354   7.383325
    20  C    6.516164   2.895054   5.823585   6.613997   6.734781
    21  C    5.022847   2.494299   5.379614   6.260109   6.889551
    22  C    7.089183   2.410410   6.549792   7.290537   7.640051
    23  C    8.538952   3.673724   8.019629   8.733129   9.094088
    24  H    2.798162   6.201211   2.248017   1.084255   2.244868
    25  H    3.511488   5.374834   2.269312   1.083578   2.249637
    26  H    3.413198   6.417824   2.232677   2.256866   1.077832
    27  H    2.692431   7.118723   2.218769   2.241554   1.084901
    28  H    1.020734   4.860664   2.061515   2.958752   3.331841
    29  H    1.019340   6.264693   2.079162   2.915838   2.610020
    30  H    6.137982   2.095005   6.057876   6.514283   7.448787
    31  H    4.815249   2.675363   4.388035   4.390983   5.571374
    32  H    4.490433   3.396011   4.618397   4.826473   5.959918
    33  H    5.654715   4.552098   4.728156   5.544867   5.141712
    34  H    7.287646   2.088504   7.004356   7.651000   8.303469
    35  H    4.109541   2.782306   4.602681   5.652848   6.113111
    36  H    5.396023   3.437601   5.912129   6.679110   7.419378
    37  H    5.853506   2.712310   6.186134   7.161329   7.680552
    38  H   10.216604   5.564157   9.625555  10.340166  10.575568
                   11         12         13         14         15
    11  C    0.000000
    12  C    1.394663   0.000000
    13  C    2.443628   1.405133   0.000000
    14  C    1.401608   2.386796   2.771449   0.000000
    15  C    4.236157   2.845053   2.490989   5.063931   0.000000
    16  C    2.828920   2.426933   1.402530   2.404949   3.778347
    17  C    3.649683   2.398648   2.753445   4.753906   1.535460
    18  C    2.435449   2.775706   2.410563   1.380521   4.897755
    19  C    4.826212   3.670967   2.382623   4.980619   2.484808
    20  C    4.322872   3.816032   2.538574   3.759080   4.382458
    21  C    4.688381   3.437784   3.258227   5.539077   1.538054
    22  C    5.104032   4.226841   2.821914   4.871381   3.770736
    23  C    6.570780   5.682808   4.280051   6.271664   4.844229
    24  H    3.455643   4.001070   5.333183   4.532913   6.013115
    25  H    2.722950   3.316667   4.387856   3.488141   5.561884
    26  H    2.783807   4.109278   5.100736   2.791587   6.909486
    27  H    3.507519   4.676835   5.930828   4.029510   7.270456
    28  H    2.815460   2.876616   4.181739   4.108611   4.461954
    29  H    3.337895   4.012071   5.338533   4.332030   6.074359
    30  H    5.224471   3.831947   3.334078   6.003221   1.094314
    31  H    3.843179   2.708780   2.937106   4.834554   2.175155
    32  H    4.422079   3.289854   3.798037   5.643916   2.178801
    33  H    3.418404   3.856663   3.382477   2.151819   5.855101
    34  H    5.774534   4.528608   3.353551   6.031795   2.654513
    35  H    4.008650   2.948086   3.060196   4.889469   2.163240
    36  H    5.441583   4.218701   4.232352   6.430090   2.169190
    37  H    5.337339   4.119565   3.621586   5.981712   2.177057
    38  H    8.136684   7.409861   6.010813   7.601924   6.763468
                   16         17         18         19         20
    16  C    0.000000
    17  C    4.132916   0.000000
    18  C    1.393168   4.953297   0.000000
    19  C    2.763054   3.658353   4.155913   0.000000
    20  C    1.494648   5.088468   2.482529   2.467720   0.000000
    21  C    4.449469   2.538623   5.460436   3.306825   5.058442
    22  C    2.466783   4.794581   3.751248   1.370225   1.463084
    23  C    3.876040   6.007151   5.068025   2.377533   2.604838
    24  H    6.069973   4.656348   5.719806   7.479717   7.517057
    25  H    4.879585   4.352404   4.487847   6.500985   6.235441
    26  H    5.085376   6.030977   4.077013   7.440352   6.453320
    27  H    6.236890   6.242172   5.408240   8.303758   7.698258
    28  H    5.152065   3.557707   5.109031   6.181548   6.561980
    29  H    6.010178   5.165806   5.575129   7.539740   7.474601
    30  H    4.502154   2.161090   5.721964   2.596646   4.847733
    31  H    4.168242   1.095354   4.969707   3.747655   5.052146
    32  H    5.191163   1.089907   5.965067   4.558511   6.146227
    33  H    2.130583   5.998673   1.081018   4.777273   2.644737
    34  H    3.847292   3.992839   5.239934   1.084440   3.440617
    35  H    4.199940   2.719218   4.987633   3.773608   5.033885
    36  H    5.490642   2.831762   6.467568   4.226774   6.122307
    37  H    4.582061   3.486688   5.687556   3.089601   4.898928
    38  H    5.322868   7.907092   6.275373   4.293635   3.855851
                   21         22         23         24         25
    21  C    0.000000
    22  C    4.488517   0.000000
    23  C    5.484145   1.469997   0.000000
    24  H    6.520684   8.074708   9.509391   0.000000
    25  H    6.390751   6.897333   8.293144   1.837478   0.000000
    26  H    7.391652   7.507652   8.922994   3.136704   2.558959
    27  H    7.504176   8.598481  10.059375   2.523894   3.128212
    28  H    4.321493   6.927575   8.346557   2.943321   3.743870
    29  H    5.916497   8.093873   9.544678   2.864907   3.950899
    30  H    2.184845   3.958095   4.770979   6.801024   6.296299
    31  H    3.490887   4.780305   5.949806   4.639671   4.030592
    32  H    2.761541   5.775563   6.918533   4.782435   4.845793
    33  H    6.398207   4.082224   5.210018   6.593650   5.284518
    34  H    3.387069   2.111137   2.502115   8.207799   7.315658
    35  H    1.092415   4.769503   5.917227   5.936310   5.926922
    36  H    1.095417   5.481346   6.392376   6.769945   6.866047
    37  H    1.093276   4.168709   4.961562   7.502683   7.258282
    38  H    7.340232   3.221205   1.919760  11.186599   9.851573
                   26         27         28         29         30
    26  H    0.000000
    27  H    1.825293   0.000000
    28  H    4.228576   3.547819   0.000000
    29  H    3.565385   2.332891   1.703348   0.000000
    30  H    7.840695   8.241102   5.442533   7.084095   0.000000
    31  H    5.995601   6.403707   4.223047   5.695410   2.473427
    32  H    6.626528   6.567986   3.617471   5.271312   2.557872
    33  H    4.559097   6.034497   6.104830   6.417621   6.622052
    34  H    8.424289   9.202802   6.834446   8.299319   2.344766
    35  H    6.642659   6.655631   3.482833   4.983337   3.077356
    36  H    8.033126   7.949639   4.555940   6.196427   2.494245
    37  H    8.094483   8.316311   5.240592   6.753885   2.557573
    38  H   10.266523  11.550758  10.114534  11.202122   6.657842
                   31         32         33         34         35
    31  H    0.000000
    32  H    1.795765   0.000000
    33  H    5.965544   7.025816   0.000000
    34  H    4.095684   4.724528   5.849003   0.000000
    35  H    3.741472   2.993144   5.942917   4.111687   0.000000
    36  H    3.812848   2.617273   7.436273   4.125180   1.779288
    37  H    4.325169   3.794540   6.513723   3.016569   1.783554
    38  H    7.793294   8.832380   6.110580   4.350710   7.734443
                   36         37         38
    36  H    0.000000
    37  H    1.780026   0.000000
    38  H    8.246222   6.726863   0.000000
 Stoichiometry    C16H15FN2O4
 Framework group  C1[X(C16H15FN2O4)]
 Deg. of freedom   108
 Full point group                 C1      NOp   1
 Largest Abelian subgroup         C1      NOp   1
 Largest concise Abelian subgroup C1      NOp   1
                         Standard orientation:                         
 ---------------------------------------------------------------------
 Center     Atomic      Atomic             Coordinates (Angstroms)
 Number     Number       Type             X           Y           Z
 ---------------------------------------------------------------------
      1          9           0        2.502815   -2.888963    0.389187
      2          8           0        1.683705    1.800621   -0.195052
      3          8           0       -2.467328   -2.606351    0.161424
      4          8           0       -4.960987   -1.535616   -0.052308
      5          8           0       -5.143640    0.729461   -0.265238
      6          7           0        3.949196    0.745092    1.137987
      7          7           0       -1.107040    1.289265   -0.157282
      8          6           0        3.585135   -0.161192    0.068742
      9          6           0        4.217504   -0.050108   -1.338552
     10          6           0        4.615260   -1.177044   -0.386903
     11          6           0        2.130854   -0.536688    0.081309
     12          6           0        1.199181    0.492111   -0.055229
     13          6           0       -0.182891    0.238691   -0.047873
     14          6           0        1.631345   -1.837108    0.235918
     15          6           0       -0.602516    2.692697   -0.130313
     16          6           0       -0.645378   -1.080031    0.071161
     17          6           0        0.737562    2.696745   -0.879855
     18          6           0        0.278875   -2.112936    0.211809
     19          6           0       -2.432717    1.012629   -0.175134
     20          6           0       -2.100416   -1.421558    0.057144
     21          6           0       -0.436805    3.186399    1.316894
     22          6           0       -2.962209   -0.248134   -0.087778
     23          6           0       -4.430815   -0.275544   -0.145528
     24          1           0        4.927200    0.756664   -1.483670
     25          1           0        3.604766   -0.301581   -2.196138
     26          1           0        4.275332   -2.179110   -0.591925
     27          1           0        5.591438   -1.108567    0.081496
     28          1           0        3.603189    1.691170    0.973326
     29          1           0        4.938727    0.715671    1.380921
     30          1           0       -1.325352    3.307407   -0.675439
     31          1           0        0.597514    2.367335   -1.915073
     32          1           0        1.198472    3.684007   -0.852060
     33          1           0       -0.092098   -3.123213    0.313388
     34          1           0       -3.115943    1.849779   -0.266741
     35          1           0        0.349968    2.611095    1.810234
     36          1           0       -0.154156    4.244722    1.317298
     37          1           0       -1.372292    3.070687    1.870723
     38          1           0       -5.953019   -1.444411   -0.099434
 ---------------------------------------------------------------------
 Rotational constants (GHZ):      0.4789076      0.1802139      0.1383384
 Standard basis: LANL2DZ (5D, 7F)
 There are   237 symmetry adapted cartesian basis functions of A   symmetry.
 There are   237 symmetry adapted basis functions of A   symmetry.
   237 basis functions,   635 primitive gaussians,   237 cartesian basis functions
    83 alpha electrons       83 beta electrons
       nuclear repulsion energy      1983.0824430617 Hartrees.
 NAtoms=   38 NActive=   38 NUniq=   38 SFac= 1.00D+00 NAtFMM=   60 NAOKFM=F Big=F
 Integral buffers will be    131072 words long.
 Raffenetti 2 integral format.
 Two-electron integral symmetry is turned on.
 One-electron integrals computed using PRISM.
 PrsmSu:  requested number of processors reduced to:   8 ShMem   1 Linda.
   1 Symmetry operations used in ECPInt.
 ECPInt:  NShTT=   10585 NPrTT=   82904 LenC2=    9783 LenP2D=   43524.
 LDataN:  DoStor=T MaxTD1= 2 Len=   12
 Number of processors reduced to   9 by ecpmxn.
 NBasis=   237 RedAO= T EigKep=  1.86D-04  NBF=   237
 NBsUse=   237 1.00D-06 EigRej= -1.00D+00 NBFU=   237
 ExpMin= 1.15D-01 ExpMax= 1.00D+04 ExpMxC= 3.50D+02 IAcc=3 IRadAn=         5 AccDes= 0.00D+00
 Harris functional with IExCor= 1009 and IRadAn=       5 diagonalized for initial guess.
 HarFok:  IExCor= 1009 AccDes= 0.00D+00 IRadAn=         5 IDoV= 1 UseB2=F ITyADJ=14
 ICtDFT=  3500011 ScaDFX=  1.000000  1.000000  1.000000  1.000000
 FoFCou: FMM=F IPFlag=           0 FMFlag=      100000 FMFlg1=           0
         NFxFlg=           0 DoJE=T BraDBF=F KetDBF=T FulRan=T
         wScrn=  0.000000 ICntrl=     500 IOpCl=  0 I1Cent=   200000004 NGrid=           0
         NMat0=    1 NMatS0=      1 NMatT0=    0 NMatD0=    1 NMtDS0=    0 NMtDT0=    0
 Petite list used in FoFCou.
 Requested convergence on RMS density matrix=1.00D-08 within 128 cycles.
 Requested convergence on MAX density matrix=1.00D-06.
 Requested convergence on             energy=1.00D-06.
 No special actions if energy rises.
 Integral accuracy reduced to 1.0D-05 until final iterations.
 Initial convergence to 1.0D-05 achieved.  Increase integral accuracy.
 SCF Done:  E(RM06) =  -1128.11601050     A.U. after   18 cycles
            NFock= 18  Conv=0.34D-08     -V/T= 2.0047

 **********************************************************************

            Population analysis using the SCF density.

 **********************************************************************

 Orbital symmetries:
       Occupied  (A) (A) (A) (A) (A) (A) (A) (A) (A) (A) (A) (A)
                 (A) (A) (A) (A) (A) (A) (A) (A) (A) (A) (A) (A)
                 (A) (A) (A) (A) (A) (A) (A) (A) (A) (A) (A) (A)
                 (A) (A) (A) (A) (A) (A) (A) (A) (A) (A) (A) (A)
                 (A) (A) (A) (A) (A) (A) (A) (A) (A) (A) (A) (A)
                 (A) (A) (A) (A) (A) (A) (A) (A) (A) (A) (A) (A)
                 (A) (A) (A) (A) (A) (A) (A) (A) (A) (A) (A)
       Virtual   (A) (A) (A) (A) (A) (A) (A) (A) (A) (A) (A) (A)
                 (A) (A) (A) (A) (A) (A) (A) (A) (A) (A) (A) (A)
                 (A) (A) (A) (A) (A) (A) (A) (A) (A) (A) (A) (A)
                 (A) (A) (A) (A) (A) (A) (A) (A) (A) (A) (A) (A)
                 (A) (A) (A) (A) (A) (A) (A) (A) (A) (A) (A) (A)
                 (A) (A) (A) (A) (A) (A) (A) (A) (A) (A) (A) (A)
                 (A) (A) (A) (A) (A) (A) (A) (A) (A) (A) (A) (A)
                 (A) (A) (A) (A) (A) (A) (A) (A) (A) (A) (A) (A)
                 (A) (A) (A) (A) (A) (A) (A) (A) (A) (A) (A) (A)
                 (A) (A) (A) (A) (A) (A) (A) (A) (A) (A) (A) (A)
                 (A) (A) (A) (A) (A) (A) (A) (A) (A) (A) (A) (A)
                 (A) (A) (A) (A) (A) (A) (A) (A) (A) (A) (A) (A)
                 (A) (A) (A) (A) (A) (A) (A) (A) (A) (A)
 The electronic state is 1-A.
 Alpha  occ. eigenvalues --  -24.80359 -19.28647 -19.26564 -19.22098 -19.19710
 Alpha  occ. eigenvalues --  -14.49479 -14.38214 -10.40635 -10.35980 -10.35057
 Alpha  occ. eigenvalues --  -10.35035 -10.34916 -10.34874 -10.34246 -10.33609
 Alpha  occ. eigenvalues --  -10.30792 -10.29511 -10.28770 -10.28021 -10.27196
 Alpha  occ. eigenvalues --  -10.27168 -10.25153 -10.25086  -1.26195  -1.13831
 Alpha  occ. eigenvalues --   -1.12291  -1.05636  -1.05003  -1.03899  -0.93415
 Alpha  occ. eigenvalues --   -0.90466  -0.86395  -0.83535  -0.82832  -0.80951
 Alpha  occ. eigenvalues --   -0.78202  -0.74609  -0.71093  -0.69207  -0.68591
 Alpha  occ. eigenvalues --   -0.64495  -0.62441  -0.61700  -0.60364  -0.58639
 Alpha  occ. eigenvalues --   -0.57016  -0.56551  -0.54097  -0.53329  -0.51903
 Alpha  occ. eigenvalues --   -0.51036  -0.50779  -0.49969  -0.49843  -0.49656
 Alpha  occ. eigenvalues --   -0.48745  -0.48121  -0.48075  -0.47076  -0.46211
 Alpha  occ. eigenvalues --   -0.44721  -0.44510  -0.43749  -0.42733  -0.42412
 Alpha  occ. eigenvalues --   -0.41854  -0.40495  -0.40205  -0.39896  -0.39108
 Alpha  occ. eigenvalues --   -0.38455  -0.37502  -0.37256  -0.34892  -0.33935
 Alpha  occ. eigenvalues --   -0.33110  -0.31312  -0.29722  -0.29378  -0.26854
 Alpha  occ. eigenvalues --   -0.25333  -0.24473  -0.23266
 Alpha virt. eigenvalues --   -0.06191  -0.05286  -0.00103   0.02149   0.04635
 Alpha virt. eigenvalues --    0.08771   0.09188   0.09793   0.10405   0.10464
 Alpha virt. eigenvalues --    0.11232   0.12143   0.12474   0.13199   0.13895
 Alpha virt. eigenvalues --    0.14667   0.14886   0.15119   0.15638   0.16611
 Alpha virt. eigenvalues --    0.16906   0.17840   0.18093   0.18566   0.19254
 Alpha virt. eigenvalues --    0.19557   0.21045   0.21086   0.21841   0.22278
 Alpha virt. eigenvalues --    0.22907   0.24158   0.24903   0.25388   0.25674
 Alpha virt. eigenvalues --    0.26108   0.26698   0.27037   0.27598   0.28949
 Alpha virt. eigenvalues --    0.29520   0.29888   0.30727   0.30977   0.31401
 Alpha virt. eigenvalues --    0.31988   0.32658   0.33068   0.33443   0.33899
 Alpha virt. eigenvalues --    0.34461   0.34735   0.35389   0.36043   0.36925
 Alpha virt. eigenvalues --    0.37319   0.38759   0.39395   0.39921   0.40566
 Alpha virt. eigenvalues --    0.40958   0.41488   0.42390   0.43453   0.43784
 Alpha virt. eigenvalues --    0.44243   0.45028   0.45620   0.46377   0.47000
 Alpha virt. eigenvalues --    0.47535   0.47805   0.49204   0.49480   0.50197
 Alpha virt. eigenvalues --    0.51141   0.51718   0.52883   0.53771   0.55234
 Alpha virt. eigenvalues --    0.55686   0.56630   0.57259   0.59838   0.60466
 Alpha virt. eigenvalues --    0.60598   0.61865   0.63884   0.65446   0.66693
 Alpha virt. eigenvalues --    0.67188   0.68319   0.69388   0.70508   0.70934
 Alpha virt. eigenvalues --    0.72611   0.73583   0.75142   0.77448   0.79875
 Alpha virt. eigenvalues --    0.80712   0.83238   0.84799   0.84935   0.87615
 Alpha virt. eigenvalues --    0.89203   0.90258   0.91315   0.92648   0.93453
 Alpha virt. eigenvalues --    0.96187   0.98545   1.00094   1.00710   1.02450
 Alpha virt. eigenvalues --    1.03097   1.04571   1.04933   1.06242   1.07199
 Alpha virt. eigenvalues --    1.07577   1.09645   1.10347   1.11305   1.11656
 Alpha virt. eigenvalues --    1.12662   1.14039   1.16336   1.17311   1.18120
 Alpha virt. eigenvalues --    1.19665   1.22531   1.25091   1.27234   1.29205
 Alpha virt. eigenvalues --    1.32504   1.35053   1.40109   1.41148   1.41959
 Alpha virt. eigenvalues --    1.47305   1.47897   1.55017   1.55504   1.57716
 Alpha virt. eigenvalues --    1.61537   1.63367   1.70819   1.81554   1.84987
 Alpha virt. eigenvalues --    1.97048   2.00486   2.09717   2.23768
          Condensed to atoms (all electrons):
               1          2          3          4          5          6
     1  F    9.050511  -0.000009   0.000004   0.000000   0.000000  -0.000017
     2  O   -0.000009   8.066497   0.000000   0.000000   0.000000  -0.008463
     3  O    0.000004   0.000000   7.776288  -0.006537   0.000012   0.000000
     4  O    0.000000   0.000000  -0.006537   8.080401  -0.083433   0.000000
     5  O    0.000000   0.000000   0.000012  -0.083433   7.886569   0.000000
     6  N   -0.000017  -0.008463   0.000000   0.000000   0.000000   6.821390
     7  N    0.000000  -0.005965   0.000291   0.000006   0.000911  -0.000010
     8  C    0.006710  -0.001765  -0.000001   0.000000   0.000000   0.401474
     9  C   -0.000289   0.001132   0.000000   0.000000   0.000000  -0.069423
    10  C   -0.010307  -0.000238   0.000000   0.000000   0.000000  -0.042509
    11  C   -0.049203  -0.073994  -0.000048   0.000000   0.000000  -0.082683
    12  C   -0.000746   0.273694  -0.000180  -0.000004  -0.000019  -0.002325
    13  C   -0.000604  -0.036024  -0.007483  -0.000345  -0.000485  -0.000708
    14  C    0.303055   0.001996   0.001217   0.000001   0.000000   0.003551
    15  C    0.000000  -0.039579   0.000003   0.000001   0.000324  -0.000096
    16  C   -0.001866  -0.008637  -0.122735  -0.001005  -0.000025  -0.000113
    17  C   -0.000001   0.276293   0.000001   0.000000  -0.000001   0.000188
    18  C   -0.058693   0.000810   0.022080   0.000163   0.000025   0.000147
    19  C    0.000000   0.000444   0.001820  -0.005386   0.008396   0.000000
    20  C   -0.000021  -0.000355   0.669450   0.002025  -0.004290  -0.000003
    21  C    0.000000  -0.017111  -0.000001   0.000000   0.000001   0.000051
    22  C   -0.000003   0.000161  -0.067419  -0.030262  -0.064548   0.000000
    23  C    0.000000   0.000000  -0.007457   0.251114   0.587378   0.000000
    24  H   -0.000009  -0.000558   0.000000   0.000000   0.000000  -0.009839
    25  H    0.000060  -0.000057   0.000000   0.000000   0.000000   0.003236
    26  H    0.003761  -0.000010   0.000000   0.000000   0.000000   0.001051
    27  H   -0.000028   0.000003   0.000000   0.000000   0.000000  -0.006308
    28  H   -0.000004   0.006970   0.000000   0.000000   0.000000   0.318816
    29  H   -0.000001   0.000240   0.000000   0.000000   0.000000   0.327185
    30  H    0.000000   0.003464   0.000000   0.000000  -0.000007   0.000000
    31  H    0.000000  -0.045254   0.000000   0.000000   0.000000  -0.000003
    32  H    0.000000  -0.038623   0.000000   0.000000   0.000000   0.000033
    33  H    0.000490   0.000003   0.010830   0.000000   0.000000   0.000000
    34  H    0.000000  -0.000007  -0.000056   0.000341   0.013087   0.000000
    35  H    0.000000   0.008387   0.000000   0.000000   0.000000  -0.000025
    36  H    0.000000   0.000023   0.000000   0.000000   0.000000  -0.000001
    37  H    0.000000   0.000019   0.000000   0.000000   0.000001   0.000000
    38  H    0.000000   0.000000   0.000378   0.245458   0.003178   0.000000
               7          8          9         10         11         12
     1  F    0.000000   0.006710  -0.000289  -0.010307  -0.049203  -0.000746
     2  O   -0.005965  -0.001765   0.001132  -0.000238  -0.073994   0.273694
     3  O    0.000291  -0.000001   0.000000   0.000000  -0.000048  -0.000180
     4  O    0.000006   0.000000   0.000000   0.000000   0.000000  -0.000004
     5  O    0.000911   0.000000   0.000000   0.000000   0.000000  -0.000019
     6  N   -0.000010   0.401474  -0.069423  -0.042509  -0.082683  -0.002325
     7  N    6.768975   0.000077  -0.000002   0.000010  -0.011032  -0.045562
     8  C    0.000077   5.325101   0.178140   0.157801   0.022393  -0.126412
     9  C   -0.000002   0.178140   5.791150   0.109644  -0.150256  -0.027505
    10  C    0.000010   0.157801   0.109644   5.695523  -0.004880  -0.008336
    11  C   -0.011032   0.022393  -0.150256  -0.004880   5.898651   0.359995
    12  C   -0.045562  -0.126412  -0.027505  -0.008336   0.359995   5.507773
    13  C    0.156809  -0.016354  -0.000714  -0.000389  -0.097369   0.331571
    14  C    0.001392   0.021486   0.007248  -0.011076   0.266280  -0.118786
    15  C    0.220534  -0.000213  -0.000009  -0.000009  -0.004276  -0.008490
    16  C   -0.022711  -0.001679  -0.000602  -0.000312  -0.125871  -0.151992
    17  C   -0.049866  -0.001801   0.000540  -0.000023  -0.002149  -0.071071
    18  C    0.014125   0.012295  -0.000188  -0.002037  -0.151843  -0.113469
    19  C    0.437696   0.000043   0.000003   0.000001  -0.001055  -0.001820
    20  C   -0.010029  -0.000313  -0.000053   0.000018  -0.002895  -0.009817
    21  C   -0.078280  -0.000034   0.000000   0.000003   0.001489   0.002305
    22  C   -0.065138  -0.000026   0.000001  -0.000001   0.000043  -0.002836
    23  C    0.009395   0.000000   0.000000   0.000000  -0.000035  -0.000691
    24  H    0.000000  -0.012524   0.370309  -0.021228  -0.000095   0.000084
    25  H   -0.000001  -0.009770   0.349354  -0.015349   0.002171   0.006534
    26  H    0.000000  -0.018908  -0.009450   0.364310   0.001559   0.001209
    27  H    0.000000  -0.008392  -0.016693   0.347525   0.000784   0.000416
    28  H    0.000011  -0.034765  -0.001567   0.006924  -0.012632   0.003088
    29  H    0.000000  -0.034903  -0.001191  -0.007680   0.012793  -0.000614
    30  H   -0.044303   0.000000   0.000000   0.000000   0.000023   0.000884
    31  H   -0.010194  -0.000014  -0.000224   0.000006  -0.000942  -0.005948
    32  H    0.005257  -0.000059   0.000051  -0.000001   0.000526   0.000963
    33  H   -0.000048  -0.000260  -0.000008   0.000034  -0.003377   0.001371
    34  H   -0.038486   0.000000   0.000000   0.000000  -0.000005   0.000094
    35  H   -0.003516   0.000027   0.000002   0.000000  -0.000151  -0.000155
    36  H    0.005131  -0.000001   0.000000   0.000000  -0.000030  -0.000670
    37  H   -0.003714   0.000000   0.000000   0.000000  -0.000048  -0.000491
    38  H    0.000001   0.000000   0.000000   0.000000   0.000000   0.000000
              13         14         15         16         17         18
     1  F   -0.000604   0.303055   0.000000  -0.001866  -0.000001  -0.058693
     2  O   -0.036024   0.001996  -0.039579  -0.008637   0.276293   0.000810
     3  O   -0.007483   0.001217   0.000003  -0.122735   0.000001   0.022080
     4  O   -0.000345   0.000001   0.000001  -0.001005   0.000000   0.000163
     5  O   -0.000485   0.000000   0.000324  -0.000025  -0.000001   0.000025
     6  N   -0.000708   0.003551  -0.000096  -0.000113   0.000188   0.000147
     7  N    0.156809   0.001392   0.220534  -0.022711  -0.049866   0.014125
     8  C   -0.016354   0.021486  -0.000213  -0.001679  -0.001801   0.012295
     9  C   -0.000714   0.007248  -0.000009  -0.000602   0.000540  -0.000188
    10  C   -0.000389  -0.011076  -0.000009  -0.000312  -0.000023  -0.002037
    11  C   -0.097369   0.266280  -0.004276  -0.125871  -0.002149  -0.151843
    12  C    0.331571  -0.118786  -0.008490  -0.151992  -0.071071  -0.113469
    13  C    5.783229  -0.087501  -0.057641   0.149412   0.006115  -0.164710
    14  C   -0.087501   5.117246  -0.000331  -0.084311   0.000625   0.407931
    15  C   -0.057641  -0.000331   5.299204   0.011220   0.219069   0.000387
    16  C    0.149412  -0.084311   0.011220   5.789112  -0.003505   0.445546
    17  C    0.006115   0.000625   0.219069  -0.003505   5.373723   0.000332
    18  C   -0.164710   0.407931   0.000387   0.445546   0.000332   5.955494
    19  C   -0.145784   0.000367  -0.041733   0.016250  -0.005357   0.007069
    20  C   -0.050408  -0.006985   0.001061   0.059294  -0.000313  -0.020909
    21  C   -0.005765   0.000078   0.298950  -0.001348  -0.073005  -0.000072
    22  C    0.031744  -0.000959  -0.002661  -0.165416  -0.000909  -0.025358
    23  C   -0.003180   0.000038   0.000834  -0.024109  -0.000006   0.000846
    24  H    0.000015   0.000044  -0.000003  -0.000003  -0.000046  -0.000003
    25  H    0.000278  -0.002257   0.000008   0.000130   0.000148  -0.000060
    26  H    0.000114  -0.007710   0.000000  -0.000079  -0.000002  -0.001162
    27  H   -0.000011   0.000770   0.000000   0.000006   0.000000   0.000020
    28  H    0.000329  -0.000411  -0.000129   0.000053   0.000391  -0.000049
    29  H   -0.000046   0.000667   0.000002   0.000003  -0.000002   0.000030
    30  H    0.002189  -0.000004   0.328799   0.000361  -0.029442   0.000023
    31  H    0.017841  -0.000174  -0.041847   0.002260   0.345560  -0.000007
    32  H   -0.003711   0.000022  -0.017813  -0.000185   0.346929   0.000000
    33  H    0.001192  -0.040548   0.000006  -0.012717  -0.000001   0.314852
    34  H   -0.006765   0.000001   0.003881  -0.000303   0.000378   0.000048
    35  H    0.006218  -0.000064  -0.037284   0.000998  -0.008121   0.000051
    36  H    0.000199   0.000000  -0.024059   0.000011  -0.002388   0.000000
    37  H   -0.000641   0.000001  -0.029088  -0.000046   0.005190   0.000003
    38  H    0.000006   0.000000   0.000000   0.000060   0.000000  -0.000004
              19         20         21         22         23         24
     1  F    0.000000  -0.000021   0.000000  -0.000003   0.000000  -0.000009
     2  O    0.000444  -0.000355  -0.017111   0.000161   0.000000  -0.000558
     3  O    0.001820   0.669450  -0.000001  -0.067419  -0.007457   0.000000
     4  O   -0.005386   0.002025   0.000000  -0.030262   0.251114   0.000000
     5  O    0.008396  -0.004290   0.000001  -0.064548   0.587378   0.000000
     6  N    0.000000  -0.000003   0.000051   0.000000   0.000000  -0.009839
     7  N    0.437696  -0.010029  -0.078280  -0.065138   0.009395   0.000000
     8  C    0.000043  -0.000313  -0.000034  -0.000026   0.000000  -0.012524
     9  C    0.000003  -0.000053   0.000000   0.000001   0.000000   0.370309
    10  C    0.000001   0.000018   0.000003  -0.000001   0.000000  -0.021228
    11  C   -0.001055  -0.002895   0.001489   0.000043  -0.000035  -0.000095
    12  C   -0.001820  -0.009817   0.002305  -0.002836  -0.000691   0.000084
    13  C   -0.145784  -0.050408  -0.005765   0.031744  -0.003180   0.000015
    14  C    0.000367  -0.006985   0.000078  -0.000959   0.000038   0.000044
    15  C   -0.041733   0.001061   0.298950  -0.002661   0.000834  -0.000003
    16  C    0.016250   0.059294  -0.001348  -0.165416  -0.024109  -0.000003
    17  C   -0.005357  -0.000313  -0.073005  -0.000909  -0.000006  -0.000046
    18  C    0.007069  -0.020909  -0.000072  -0.025358   0.000846  -0.000003
    19  C    5.528445  -0.071930  -0.002942   0.274119  -0.015754   0.000000
    20  C   -0.071930   5.277772   0.000254   0.052657  -0.042528   0.000000
    21  C   -0.002942   0.000254   5.443011  -0.000137   0.000000   0.000000
    22  C    0.274119   0.052657  -0.000137   5.919329   0.078885   0.000000
    23  C   -0.015754  -0.042528   0.000000   0.078885   4.997865   0.000000
    24  H    0.000000   0.000000   0.000000   0.000000   0.000000   0.441094
    25  H   -0.000001   0.000004   0.000000   0.000000   0.000000  -0.009652
    26  H    0.000000  -0.000002   0.000000   0.000000   0.000000   0.000905
    27  H    0.000000   0.000000   0.000000   0.000000   0.000000  -0.004117
    28  H    0.000000   0.000000   0.000086   0.000000   0.000000   0.000144
    29  H    0.000000   0.000000  -0.000002   0.000000   0.000000   0.000472
    30  H    0.001067  -0.000084  -0.042043   0.000595  -0.000007   0.000000
    31  H   -0.000979   0.000055   0.006126  -0.000139   0.000000   0.000003
    32  H    0.000295  -0.000003  -0.004711   0.000020   0.000000   0.000000
    33  H   -0.000133   0.006963   0.000000   0.002888  -0.000009   0.000000
    34  H    0.311259   0.003844  -0.000371  -0.012140  -0.006303   0.000000
    35  H   -0.000589   0.000022   0.372260  -0.000079   0.000000   0.000000
    36  H    0.000137   0.000000   0.363794  -0.000001   0.000000   0.000000
    37  H    0.003045   0.000011   0.369044   0.000090   0.000014   0.000000
    38  H   -0.000432   0.001822   0.000000   0.005131  -0.028549   0.000000
              25         26         27         28         29         30
     1  F    0.000060   0.003761  -0.000028  -0.000004  -0.000001   0.000000
     2  O   -0.000057  -0.000010   0.000003   0.006970   0.000240   0.003464
     3  O    0.000000   0.000000   0.000000   0.000000   0.000000   0.000000
     4  O    0.000000   0.000000   0.000000   0.000000   0.000000   0.000000
     5  O    0.000000   0.000000   0.000000   0.000000   0.000000  -0.000007
     6  N    0.003236   0.001051  -0.006308   0.318816   0.327185   0.000000
     7  N   -0.000001   0.000000   0.000000   0.000011   0.000000  -0.044303
     8  C   -0.009770  -0.018908  -0.008392  -0.034765  -0.034903   0.000000
     9  C    0.349354  -0.009450  -0.016693  -0.001567  -0.001191   0.000000
    10  C   -0.015349   0.364310   0.347525   0.006924  -0.007680   0.000000
    11  C    0.002171   0.001559   0.000784  -0.012632   0.012793   0.000023
    12  C    0.006534   0.001209   0.000416   0.003088  -0.000614   0.000884
    13  C    0.000278   0.000114  -0.000011   0.000329  -0.000046   0.002189
    14  C   -0.002257  -0.007710   0.000770  -0.000411   0.000667  -0.000004
    15  C    0.000008   0.000000   0.000000  -0.000129   0.000002   0.328799
    16  C    0.000130  -0.000079   0.000006   0.000053   0.000003   0.000361
    17  C    0.000148  -0.000002   0.000000   0.000391  -0.000002  -0.029442
    18  C   -0.000060  -0.001162   0.000020  -0.000049   0.000030   0.000023
    19  C   -0.000001   0.000000   0.000000   0.000000   0.000000   0.001067
    20  C    0.000004  -0.000002   0.000000   0.000000   0.000000  -0.000084
    21  C    0.000000   0.000000   0.000000   0.000086  -0.000002  -0.042043
    22  C    0.000000   0.000000   0.000000   0.000000   0.000000   0.000595
    23  C    0.000000   0.000000   0.000000   0.000000   0.000000  -0.000007
    24  H   -0.009652   0.000905  -0.004117   0.000144   0.000472   0.000000
    25  H    0.447506  -0.004760   0.000956   0.000384  -0.000132   0.000000
    26  H   -0.004760   0.410827  -0.008917  -0.000108   0.000287   0.000000
    27  H    0.000956  -0.008917   0.458780   0.000381   0.000670   0.000000
    28  H    0.000384  -0.000108   0.000381   0.434792  -0.032944   0.000000
    29  H   -0.000132   0.000287   0.000670  -0.032944   0.445498   0.000000
    30  H    0.000000   0.000000   0.000000   0.000000   0.000000   0.541921
    31  H    0.000013   0.000000   0.000000   0.000007   0.000000  -0.000211
    32  H    0.000000   0.000000   0.000000  -0.000041  -0.000001   0.001348
    33  H    0.000001   0.000000   0.000000   0.000000   0.000000   0.000000
    34  H    0.000000   0.000000   0.000000   0.000000   0.000000   0.001472
    35  H    0.000000   0.000000   0.000000   0.000014   0.000000   0.003327
    36  H    0.000000   0.000000   0.000000   0.000002   0.000000  -0.002550
    37  H    0.000000   0.000000   0.000000   0.000001   0.000000  -0.002809
    38  H    0.000000   0.000000   0.000000   0.000000   0.000000   0.000000
              31         32         33         34         35         36
     1  F    0.000000   0.000000   0.000490   0.000000   0.000000   0.000000
     2  O   -0.045254  -0.038623   0.000003  -0.000007   0.008387   0.000023
     3  O    0.000000   0.000000   0.010830  -0.000056   0.000000   0.000000
     4  O    0.000000   0.000000   0.000000   0.000341   0.000000   0.000000
     5  O    0.000000   0.000000   0.000000   0.013087   0.000000   0.000000
     6  N   -0.000003   0.000033   0.000000   0.000000  -0.000025  -0.000001
     7  N   -0.010194   0.005257  -0.000048  -0.038486  -0.003516   0.005131
     8  C   -0.000014  -0.000059  -0.000260   0.000000   0.000027  -0.000001
     9  C   -0.000224   0.000051  -0.000008   0.000000   0.000002   0.000000
    10  C    0.000006  -0.000001   0.000034   0.000000   0.000000   0.000000
    11  C   -0.000942   0.000526  -0.003377  -0.000005  -0.000151  -0.000030
    12  C   -0.005948   0.000963   0.001371   0.000094  -0.000155  -0.000670
    13  C    0.017841  -0.003711   0.001192  -0.006765   0.006218   0.000199
    14  C   -0.000174   0.000022  -0.040548   0.000001  -0.000064   0.000000
    15  C   -0.041847  -0.017813   0.000006   0.003881  -0.037284  -0.024059
    16  C    0.002260  -0.000185  -0.012717  -0.000303   0.000998   0.000011
    17  C    0.345560   0.346929  -0.000001   0.000378  -0.008121  -0.002388
    18  C   -0.000007   0.000000   0.314852   0.000048   0.000051   0.000000
    19  C   -0.000979   0.000295  -0.000133   0.311259  -0.000589   0.000137
    20  C    0.000055  -0.000003   0.006963   0.003844   0.000022   0.000000
    21  C    0.006126  -0.004711   0.000000  -0.000371   0.372260   0.363794
    22  C   -0.000139   0.000020   0.002888  -0.012140  -0.000079  -0.000001
    23  C    0.000000   0.000000  -0.000009  -0.006303   0.000000   0.000000
    24  H    0.000003   0.000000   0.000000   0.000000   0.000000   0.000000
    25  H    0.000013   0.000000   0.000001   0.000000   0.000000   0.000000
    26  H    0.000000   0.000000   0.000000   0.000000   0.000000   0.000000
    27  H    0.000000   0.000000   0.000000   0.000000   0.000000   0.000000
    28  H    0.000007  -0.000041   0.000000   0.000000   0.000014   0.000002
    29  H    0.000000  -0.000001   0.000000   0.000000   0.000000   0.000000
    30  H   -0.000211   0.001348   0.000000   0.001472   0.003327  -0.002550
    31  H    0.528569  -0.032654   0.000000   0.000048   0.000168   0.000036
    32  H   -0.032654   0.509177   0.000000  -0.000008  -0.000449   0.000527
    33  H    0.000000   0.000000   0.418683   0.000000   0.000000   0.000000
    34  H    0.000048  -0.000008   0.000000   0.449072   0.000013   0.000015
    35  H    0.000168  -0.000449   0.000000   0.000013   0.447906  -0.018679
    36  H    0.000036   0.000527   0.000000   0.000015  -0.018679   0.478800
    37  H   -0.000061   0.000050   0.000000  -0.000279  -0.018664  -0.017702
    38  H    0.000000   0.000000   0.000000   0.000000   0.000000   0.000000
              37         38
     1  F    0.000000   0.000000
     2  O    0.000019   0.000000
     3  O    0.000000   0.000378
     4  O    0.000000   0.245458
     5  O    0.000001   0.003178
     6  N    0.000000   0.000000
     7  N   -0.003714   0.000001
     8  C    0.000000   0.000000
     9  C    0.000000   0.000000
    10  C    0.000000   0.000000
    11  C   -0.000048   0.000000
    12  C   -0.000491   0.000000
    13  C   -0.000641   0.000006
    14  C    0.000001   0.000000
    15  C   -0.029088   0.000000
    16  C   -0.000046   0.000060
    17  C    0.005190   0.000000
    18  C    0.000003  -0.000004
    19  C    0.003045  -0.000432
    20  C    0.000011   0.001822
    21  C    0.369044   0.000000
    22  C    0.000090   0.005131
    23  C    0.000014  -0.028549
    24  H    0.000000   0.000000
    25  H    0.000000   0.000000
    26  H    0.000000   0.000000
    27  H    0.000000   0.000000
    28  H    0.000001   0.000000
    29  H    0.000000   0.000000
    30  H   -0.002809   0.000000
    31  H   -0.000061   0.000000
    32  H    0.000050   0.000000
    33  H    0.000000   0.000000
    34  H   -0.000279   0.000000
    35  H   -0.018664   0.000000
    36  H   -0.017702   0.000000
    37  H    0.465940   0.000000
    38  H    0.000000   0.366759
 Mulliken charges:
               1
     1  F   -0.242789
     2  O   -0.363485
     3  O   -0.270458
     4  O   -0.452538
     5  O   -0.347074
     6  N   -0.654594
     7  N   -0.231764
     8  C    0.142646
     9  C   -0.529400
    10  C   -0.557424
    11  C    0.208164
    12  C    0.207958
    13  C    0.199375
    14  C    0.227100
    15  C   -0.079023
    16  C    0.254854
    17  C   -0.327470
    18  C   -0.643711
    19  C   -0.296560
    20  C    0.145684
    21  C   -0.631628
    22  C    0.072372
    23  C    0.202261
    24  H    0.245005
    25  H    0.231255
    26  H    0.267083
    27  H    0.234153
    28  H    0.310257
    29  H    0.289670
    30  H    0.235987
    31  H    0.237960
    32  H    0.233061
    33  H    0.299790
    34  H    0.281170
    35  H    0.248385
    36  H    0.217405
    37  H    0.230133
    38  H    0.406191
 Sum of Mulliken charges =   0.00000
 Mulliken charges with hydrogens summed into heavy atoms:
               1
     1  F   -0.242789
     2  O   -0.363485
     3  O   -0.270458
     4  O   -0.046347
     5  O   -0.347074
     6  N   -0.054667
     7  N   -0.231764
     8  C    0.142646
     9  C   -0.053141
    10  C   -0.056188
    11  C    0.208164
    12  C    0.207958
    13  C    0.199375
    14  C    0.227100
    15  C    0.156964
    16  C    0.254854
    17  C    0.143551
    18  C   -0.343921
    19  C   -0.015389
    20  C    0.145684
    21  C    0.064294
    22  C    0.072372
    23  C    0.202261
 Electronic spatial extent (au):  <R**2>=           7490.0355
 Charge=              0.0000 electrons
 Dipole moment (field-independent basis, Debye):
    X=              3.2654    Y=              7.8264    Z=             -1.7405  Tot=              8.6571
 Quadrupole moment (field-independent basis, Debye-Ang):
   XX=           -135.0715   YY=           -128.9971   ZZ=           -132.1940
   XY=              1.6943   XZ=             -2.4382   YZ=              0.4426
 Traceless Quadrupole moment (field-independent basis, Debye-Ang):
   XX=             -2.9839   YY=              3.0904   ZZ=             -0.1065
   XY=              1.6943   XZ=             -2.4382   YZ=              0.4426
 Octapole moment (field-independent basis, Debye-Ang**2):
  XXX=             70.4084  YYY=             91.6303  ZZZ=             -5.5931  XYY=             23.6912
  XXY=            -16.3039  XXZ=             13.0747  XZZ=            -11.9224  YZZ=              4.2293
  YYZ=             -7.1821  XYZ=             -1.7992
 Hexadecapole moment (field-independent basis, Debye-Ang**3):
 XXXX=          -5963.8504 YYYY=          -2317.7604 ZZZZ=           -425.4458 XXXY=            482.9143
 XXXZ=             89.7073 YYYX=            -51.3212 YYYZ=             -9.7801 ZZZX=             -3.6661
 ZZZY=            -13.9339 XXYY=          -1610.6313 XXZZ=          -1206.7400 YYZZ=           -456.1619
 XXYZ=             37.1576 YYXZ=              5.4013 ZZXY=             10.9622
 N-N= 1.983082443062D+03 E-N=-6.603413904438D+03  KE= 1.122805867639D+03
 PrsmSu:  requested number of processors reduced to:   8 ShMem   1 Linda.
 PrsmSu:  requested number of processors reduced to:  19 ShMem   1 Linda.
   1 Symmetry operations used in ECPInt.
 ECPInt:  NShTT=   10585 NPrTT=   82904 LenC2=    9783 LenP2D=   43524.
 LDataN:  DoStor=T MaxTD1= 3 Len=   28
 Number of processors reduced to   9 by ecpmxn.
 Calling FoFJK, ICntrl=      2127 FMM=F ISym2X=0 I1Cent= 0 IOpClX= 0 NMat=1 NMatS=1 NMatT=0.
 CoulSu:  requested number of processors reduced to:  19 ShMem   1 Linda.
 ***** Axes restored to original set *****
 -------------------------------------------------------------------
 Center     Atomic                   Forces (Hartrees/Bohr)
 Number     Number              X              Y              Z
 -------------------------------------------------------------------
      1        9           0.002046976   -0.006217865    0.002858035
      2        8          -0.008029992    0.001477346   -0.006945183
      3        8          -0.002338247   -0.007112321    0.000642549
      4        8          -0.016595227    0.009370086   -0.001556058
      5        8          -0.008309597    0.007547022   -0.001090653
      6        7           0.003870475    0.003493515   -0.007840607
      7        7           0.001175942    0.006227312   -0.000154655
      8        6           0.000989683   -0.007054271   -0.001466360
      9        6           0.001620670   -0.001472918    0.006930718
     10        6          -0.003652352    0.008704082   -0.000185442
     11        6           0.012281883    0.003587770    0.003579584
     12        6           0.000763592    0.004801567   -0.001523626
     13        6          -0.001470914    0.002422248    0.000501748
     14        6          -0.006393218    0.008980453   -0.003439353
     15        6           0.003842904   -0.005839106    0.002543179
     16        6          -0.003842893   -0.002317743   -0.000226903
     17        6           0.000971522   -0.004214682    0.008329292
     18        6           0.000769472   -0.006930393    0.001458622
     19        6           0.006513102    0.007273917    0.000229858
     20        6           0.006103399    0.007257839   -0.000417025
     21        6          -0.002153997   -0.001072321   -0.007027341
     22        6          -0.006491796   -0.005372476    0.000004270
     23        6           0.009011256   -0.014761481    0.001805327
     24        1           0.000179989    0.001288182   -0.000957796
     25        1          -0.000651691    0.000081786   -0.001661592
     26        1           0.002098920   -0.002283286   -0.001953848
     27        1           0.001103502   -0.001049044    0.000233996
     28        1           0.000312321   -0.001531969    0.002428637
     29        1          -0.003988286   -0.000996403    0.001614710
     30        1          -0.000759002    0.001089984   -0.000524697
     31        1           0.001663356   -0.000998013   -0.001242846
     32        1           0.000577174    0.000486302   -0.000127564
     33        1          -0.001124631   -0.003495634    0.000288016
     34        1          -0.001046971    0.003210854    0.000039305
     35        1           0.000464523   -0.000037620    0.002360842
     36        1           0.000128603   -0.000154741    0.000816405
     37        1          -0.000333483    0.000111949    0.000851570
     38        1           0.010693032   -0.004499925    0.000824888
 -------------------------------------------------------------------
 Cartesian Forces:  Max     0.016595227 RMS     0.004622979

 GradGradGradGradGradGradGradGradGradGradGradGradGradGradGradGradGradGrad
 Berny optimization.
 FormGI is forming the generalized inverse of G from B-inverse, IUseBI=4.
 Internal  Forces:  Max     0.011204969 RMS     0.002594092
 Search for a local minimum.
 Step number   1 out of a maximum of  225
 All quantities printed in internal units (Hartrees-Bohrs-Radians)
 Mixed Optimization -- RFO/linear search
 Second derivative matrix not updated -- first step.
 ITU=  0
     Eigenvalues ---    0.00263   0.00739   0.00755   0.01051   0.01055
     Eigenvalues ---    0.01160   0.01163   0.01403   0.01460   0.01517
     Eigenvalues ---    0.01536   0.01627   0.01728   0.01840   0.01877
     Eigenvalues ---    0.01943   0.02085   0.02087   0.02196   0.02201
     Eigenvalues ---    0.02202   0.02273   0.02367   0.02392   0.02665
     Eigenvalues ---    0.02971   0.03370   0.03504   0.03802   0.04168
     Eigenvalues ---    0.04601   0.05445   0.05596   0.05709   0.05737
     Eigenvalues ---    0.06709   0.10275   0.10335   0.10615   0.11275
     Eigenvalues ---    0.12572   0.13670   0.15998   0.16000   0.16000
     Eigenvalues ---    0.16000   0.16000   0.16000   0.16000   0.16000
     Eigenvalues ---    0.16000   0.16937   0.18025   0.18955   0.20485
     Eigenvalues ---    0.23443   0.23579   0.23603   0.24878   0.24957
     Eigenvalues ---    0.24992   0.24996   0.24997   0.24998   0.24999
     Eigenvalues ---    0.25000   0.25000   0.25000   0.26051   0.27708
     Eigenvalues ---    0.28692   0.29691   0.32146   0.32165   0.32430
     Eigenvalues ---    0.33241   0.34194   0.34201   0.34319   0.34437
     Eigenvalues ---    0.34535   0.34823   0.35401   0.35409   0.35463
     Eigenvalues ---    0.35485   0.35566   0.35741   0.35872   0.36258
     Eigenvalues ---    0.38422   0.38487   0.41129   0.42465   0.44221
     Eigenvalues ---    0.44232   0.44444   0.44591   0.45297   0.46650
     Eigenvalues ---    0.48161   0.48193   0.49496   0.50115   0.50931
     Eigenvalues ---    0.52751   0.85233   0.87858
 RFO step:  Lambda=-5.91036498D-03 EMin= 2.62566855D-03
 Linear search not attempted -- first point.
 Iteration  1 RMS(Cart)=  0.06559069 RMS(Int)=  0.00177619
 Iteration  2 RMS(Cart)=  0.00247710 RMS(Int)=  0.00017993
 Iteration  3 RMS(Cart)=  0.00000257 RMS(Int)=  0.00017991
 Iteration  4 RMS(Cart)=  0.00000000 RMS(Int)=  0.00017991
 Variable       Old X    -DE/DX   Delta X   Delta X   Delta X     New X
                                 (Linear)    (Quad)   (Total)
    R1        2.59750   0.00637   0.00000   0.01257   0.01257   2.61007
    R2        2.65001  -0.00405   0.00000  -0.00836  -0.00835   2.64166
    R3        2.78193  -0.00965   0.00000  -0.02843  -0.02846   2.75347
    R4        2.35211   0.00751   0.00000   0.00875   0.00875   2.36086
    R5        2.58938  -0.00225   0.00000  -0.00436  -0.00436   2.58501
    R6        1.88468  -0.01109   0.00000  -0.02274  -0.02274   1.86194
    R7        2.33936   0.01102   0.00000   0.01246   0.01246   2.35182
    R8        2.73663  -0.00216   0.00000  -0.00552  -0.00552   2.73111
    R9        1.92891  -0.00192   0.00000  -0.00428  -0.00428   1.92463
   R10        1.92627  -0.00346   0.00000  -0.00768  -0.00768   1.91860
   R11        2.65217   0.00146   0.00000   0.00365   0.00364   2.65581
   R12        2.81873  -0.00566   0.00000  -0.01763  -0.01766   2.80107
   R13        2.55935   0.00011   0.00000   0.00037   0.00037   2.55972
   R14        2.92310  -0.00224   0.00000  -0.00765  -0.00760   2.91550
[...]
    22  C   -0.065609  -0.000035   0.000002  -0.000001  -0.000008  -0.003816
    23  C    0.009065   0.000000   0.000000   0.000000  -0.000028  -0.000622
    24  H    0.000000  -0.005763   0.361945  -0.020091   0.000940   0.000140
    25  H   -0.000001  -0.013973   0.370612  -0.020005  -0.004060   0.004487
    26  H    0.000000  -0.014145  -0.017478   0.360858   0.003685   0.001318
    27  H    0.000000  -0.003806  -0.014483   0.354584  -0.000660   0.000263
    28  H    0.000008  -0.034123  -0.009961   0.006634  -0.005184   0.005642
    29  H   -0.000001  -0.043622   0.007313  -0.010012   0.002541  -0.000247
    30  H   -0.045880   0.000002   0.000000   0.000000   0.000040   0.001170
    31  H   -0.010210   0.000129  -0.000298   0.000013  -0.000291  -0.005132
    32  H    0.005298  -0.000078   0.000055   0.000000   0.000450   0.000988
    33  H   -0.000053  -0.000016  -0.000002   0.000028  -0.002420   0.000993
    34  H   -0.039707   0.000000   0.000000   0.000000  -0.000004  -0.000023
    35  H   -0.003775   0.000059   0.000002   0.000000   0.000054   0.000078
    36  H    0.005349   0.000001   0.000000   0.000000  -0.000026  -0.000577
    37  H   -0.004096   0.000000   0.000000   0.000000  -0.000038  -0.000368
    38  H    0.000001   0.000000   0.000000   0.000000   0.000000   0.000000
              13         14         15         16         17         18
     1  F   -0.000622   0.306914   0.000000  -0.001338  -0.000001  -0.058877
     2  O   -0.036383   0.001858  -0.040854  -0.007717   0.276966   0.000789
     3  O   -0.007403   0.001445   0.000002  -0.122198   0.000001   0.023289
     4  O   -0.000296   0.000001   0.000000  -0.000859   0.000000   0.000134
     5  O   -0.000435   0.000000   0.000302  -0.000066  -0.000001   0.000022
     6  N    0.000900  -0.004777  -0.000180  -0.000055   0.000224  -0.000648
     7  N    0.160734   0.001414   0.219147  -0.017739  -0.047414   0.013555
     8  C   -0.009028  -0.010179  -0.000108  -0.002157  -0.002201   0.004536
     9  C    0.000627  -0.008084   0.000028  -0.000410   0.000977  -0.000612
    10  C   -0.000147   0.000319  -0.000010  -0.000181  -0.000036  -0.000748
    11  C   -0.070630   0.297478  -0.002881  -0.106573  -0.002193  -0.129877
    12  C    0.331165  -0.108769  -0.009122  -0.135769  -0.073826  -0.096583
    13  C    5.727050  -0.072310  -0.054179   0.148849   0.006423  -0.153007
    14  C   -0.072310   5.079945  -0.000306  -0.070743   0.000537   0.402239
    15  C   -0.054179  -0.000306   5.298902   0.010545   0.215071   0.000246
    16  C    0.148849  -0.070743   0.010545   5.736156  -0.003046   0.439432
    17  C    0.006423   0.000537   0.215071  -0.003046   5.380552   0.000312
    18  C   -0.153007   0.402239   0.000246   0.439432   0.000312   5.927733
    19  C   -0.138921   0.000315  -0.043730   0.013323  -0.005196   0.006278
    20  C   -0.043632  -0.011469   0.000904   0.058989  -0.000287  -0.027365
    21  C   -0.005224   0.000062   0.298748  -0.000977  -0.071286  -0.000068
    22  C    0.025824  -0.001052  -0.002872  -0.158284  -0.000877  -0.022379
    23  C   -0.002176   0.000026   0.000780  -0.024590  -0.000001   0.000654
    24  H    0.000005  -0.000004  -0.000004   0.000000  -0.000030   0.000000
    25  H    0.000192   0.000044   0.000013   0.000077   0.000235   0.000000
    26  H    0.000084  -0.006000   0.000000  -0.000057  -0.000001  -0.000673
    27  H   -0.000009   0.000721   0.000000   0.000005  -0.000001   0.000014
    28  H    0.000225   0.000177  -0.000105   0.000072   0.000023  -0.000010
    29  H   -0.000112   0.001810   0.000003   0.000014   0.000003   0.000084
    30  H    0.001939  -0.000004   0.332543   0.000320  -0.029720   0.000021
    31  H    0.016599  -0.000145  -0.041488   0.001896   0.348042  -0.000023
    32  H   -0.003918   0.000023  -0.017316  -0.000189   0.346563   0.000000
    33  H    0.001272  -0.039067   0.000005  -0.011862  -0.000001   0.316273
    34  H   -0.006652   0.000002   0.004294   0.000000   0.000436   0.000056
    35  H    0.005870  -0.000052  -0.036338   0.000960  -0.007246   0.000045
    36  H    0.000116   0.000000  -0.024246   0.000008  -0.002683   0.000000
    37  H   -0.000905   0.000001  -0.028360  -0.000076   0.005055   0.000002
    38  H    0.000006   0.000000   0.000000   0.000045   0.000000  -0.000003
              19         20         21         22         23         24
     1  F    0.000000  -0.000053   0.000000  -0.000003   0.000000  -0.000004
     2  O    0.000633  -0.000354  -0.012582   0.000154   0.000000  -0.000644
     3  O    0.001881   0.666739   0.000000  -0.069000  -0.007506   0.000000
     4  O   -0.005767   0.003732   0.000000  -0.028860   0.257535   0.000000
     5  O    0.009310  -0.004063   0.000003  -0.067931   0.588593   0.000000
     6  N    0.000002  -0.000004   0.000064   0.000000   0.000000  -0.003731
     7  N    0.433423  -0.010207  -0.080910  -0.065609   0.009065   0.000000
     8  C    0.000085  -0.000303  -0.000053  -0.000035   0.000000  -0.005763
     9  C    0.000003  -0.000039  -0.000006   0.000002   0.000000   0.361945
    10  C    0.000001   0.000015   0.000004  -0.000001   0.000000  -0.020091
    11  C   -0.000947  -0.002455   0.001273  -0.000008  -0.000028   0.000940
    12  C   -0.002243  -0.009331   0.000814  -0.003816  -0.000622   0.000140
    13  C   -0.138921  -0.043632  -0.005224   0.025824  -0.002176   0.000005
    14  C    0.000315  -0.011469   0.000062  -0.001052   0.000026  -0.000004
    15  C   -0.043730   0.000904   0.298748  -0.002872   0.000780  -0.000004
    16  C    0.013323   0.058989  -0.000977  -0.158284  -0.024590   0.000000
    17  C   -0.005196  -0.000287  -0.071286  -0.000877  -0.000001  -0.000030
    18  C    0.006278  -0.027365  -0.000068  -0.022379   0.000654   0.000000
    19  C    5.521230  -0.073543  -0.004025   0.273725  -0.014040   0.000000
    20  C   -0.073543   5.290141   0.000290   0.054889  -0.043752   0.000000
    21  C   -0.004025   0.000290   5.445590  -0.000322   0.000018   0.000000
    22  C    0.273725   0.054889  -0.000322   5.919018   0.078906   0.000000
    23  C   -0.014040  -0.043752   0.000018   0.078906   4.988442   0.000000
    24  H    0.000000   0.000000   0.000000   0.000000   0.000000   0.428293
    25  H    0.000000   0.000002   0.000001   0.000000   0.000000  -0.010259
    26  H    0.000000  -0.000001   0.000000   0.000000   0.000000   0.001008
    27  H    0.000000   0.000000   0.000000   0.000000   0.000000  -0.004182
    28  H    0.000000   0.000001   0.000072   0.000000   0.000000   0.000614
    29  H    0.000000   0.000000  -0.000002   0.000000   0.000000   0.000063
    30  H    0.000364  -0.000073  -0.044177   0.000717  -0.000009   0.000000
    31  H   -0.001067   0.000047   0.006423  -0.000123   0.000000   0.000001
    32  H    0.000354  -0.000003  -0.005518   0.000022   0.000000  -0.000001
    33  H   -0.000125   0.005413   0.000000   0.002490  -0.000010   0.000000
    34  H    0.311806   0.003660  -0.000945  -0.012047  -0.005789   0.000000
    35  H   -0.000807   0.000023   0.371520  -0.000093   0.000000   0.000000
    36  H    0.000129   0.000000   0.364880   0.000000   0.000000   0.000000
    37  H    0.004129   0.000016   0.369309   0.000161   0.000018   0.000000
    38  H   -0.000322   0.001445   0.000000   0.005116  -0.028768   0.000000
              25         26         27         28         29         30
     1  F    0.000016   0.001871  -0.000291  -0.000007  -0.000054   0.000000
     2  O   -0.000273  -0.000005   0.000001   0.004217   0.000052   0.003487
     3  O    0.000000   0.000000   0.000000   0.000000   0.000000   0.000000
     4  O    0.000000   0.000000   0.000000   0.000000   0.000000   0.000000
     5  O    0.000000   0.000000   0.000000   0.000000   0.000000  -0.000006
     6  N    0.001625   0.001244  -0.002976   0.329624   0.335454   0.000000
     7  N   -0.000001   0.000000   0.000000   0.000008  -0.000001  -0.045880
     8  C   -0.013973  -0.014145  -0.003806  -0.034123  -0.043622   0.000002
     9  C    0.370612  -0.017478  -0.014483  -0.009961   0.007313   0.000000
    10  C   -0.020005   0.360858   0.354584   0.006634  -0.010012   0.000000
    11  C   -0.004060   0.003685  -0.000660  -0.005184   0.002541   0.000040
    12  C    0.004487   0.001318   0.000263   0.005642  -0.000247   0.001170
    13  C    0.000192   0.000084  -0.000009   0.000225  -0.000112   0.001939
    14  C    0.000044  -0.006000   0.000721   0.000177   0.001810  -0.000004
    15  C    0.000013   0.000000   0.000000  -0.000105   0.000003   0.332543
    16  C    0.000077  -0.000057   0.000005   0.000072   0.000014   0.000320
    17  C    0.000235  -0.000001  -0.000001   0.000023   0.000003  -0.029720
    18  C    0.000000  -0.000673   0.000014  -0.000010   0.000084   0.000021
    19  C    0.000000   0.000000   0.000000   0.000000   0.000000   0.000364
    20  C    0.000002  -0.000001   0.000000   0.000001   0.000000  -0.000073
    21  C    0.000001   0.000000   0.000000   0.000072  -0.000002  -0.044177
    22  C    0.000000   0.000000   0.000000   0.000000   0.000000   0.000717
    23  C    0.000000   0.000000   0.000000   0.000000   0.000000  -0.000009
    24  H   -0.010259   0.001008  -0.004182   0.000614   0.000063   0.000000
    25  H    0.456065  -0.004559   0.000915   0.000308  -0.000090   0.000000
    26  H   -0.004559   0.442099  -0.011057  -0.000090   0.000273   0.000000
    27  H    0.000915  -0.011057   0.433991   0.000059   0.000775   0.000000
    28  H    0.000308  -0.000090   0.000059   0.424209  -0.035506   0.000000
    29  H   -0.000090   0.000273   0.000775  -0.035506   0.447400   0.000000
    30  H    0.000000   0.000000   0.000000   0.000000   0.000000   0.540718
    31  H    0.000030   0.000000   0.000000   0.000009   0.000000  -0.000327
    32  H    0.000002   0.000000   0.000000  -0.000025   0.000000   0.001269
    33  H    0.000000   0.000000   0.000000   0.000000   0.000000   0.000000
    34  H    0.000000   0.000000   0.000000   0.000000   0.000000   0.001660
    35  H    0.000000   0.000000   0.000000   0.000023   0.000001   0.003449
    36  H    0.000000   0.000000   0.000000   0.000002   0.000000  -0.002432
    37  H    0.000000   0.000000   0.000000   0.000000   0.000000  -0.003332
    38  H    0.000000   0.000000   0.000000   0.000000   0.000000   0.000000
              31         32         33         34         35         36
     1  F    0.000000   0.000000   0.000203   0.000000   0.000000   0.000000
     2  O   -0.047954  -0.039885   0.000002  -0.000007   0.006615   0.000023
     3  O    0.000000   0.000000   0.009622  -0.000054   0.000000   0.000000
     4  O    0.000000   0.000000   0.000000   0.000318   0.000000   0.000000
     5  O    0.000000   0.000000   0.000000   0.012528   0.000000   0.000000
     6  N   -0.000010   0.000039   0.000002   0.000000   0.000017   0.000000
     7  N   -0.010210   0.005298  -0.000053  -0.039707  -0.003775   0.005349
     8  C    0.000129  -0.000078  -0.000016   0.000000   0.000059   0.000001
     9  C   -0.000298   0.000055  -0.000002   0.000000   0.000002   0.000000
    10  C    0.000013   0.000000   0.000028   0.000000   0.000000   0.000000
    11  C   -0.000291   0.000450  -0.002420  -0.000004   0.000054  -0.000026
    12  C   -0.005132   0.000988   0.000993  -0.000023   0.000078  -0.000577
    13  C    0.016599  -0.003918   0.001272  -0.006652   0.005870   0.000116
    14  C   -0.000145   0.000023  -0.039067   0.000002  -0.000052   0.000000
    15  C   -0.041488  -0.017316   0.000005   0.004294  -0.036338  -0.024246
    16  C    0.001896  -0.000189  -0.011862   0.000000   0.000960   0.000008
    17  C    0.348042   0.346563  -0.000001   0.000436  -0.007246  -0.002683
    18  C   -0.000023   0.000000   0.316273   0.000056   0.000045   0.000000
    19  C   -0.001067   0.000354  -0.000125   0.311806  -0.000807   0.000129
    20  C    0.000047  -0.000003   0.005413   0.003660   0.000023   0.000000
    21  C    0.006423  -0.005518   0.000000  -0.000945   0.371520   0.364880
    22  C   -0.000123   0.000022   0.002490  -0.012047  -0.000093   0.000000
    23  C    0.000000   0.000000  -0.000010  -0.005789   0.000000   0.000000
    24  H    0.000001  -0.000001   0.000000   0.000000   0.000000   0.000000
    25  H    0.000030   0.000002   0.000000   0.000000   0.000000   0.000000
    26  H    0.000000   0.000000   0.000000   0.000000   0.000000   0.000000
    27  H    0.000000   0.000000   0.000000   0.000000   0.000000   0.000000
    28  H    0.000009  -0.000025   0.000000   0.000000   0.000023   0.000002
    29  H    0.000000   0.000000   0.000000   0.000000   0.000001   0.000000
    30  H   -0.000327   0.001269   0.000000   0.001660   0.003449  -0.002432
    31  H    0.531533  -0.033433   0.000000   0.000043   0.000131   0.000047
    32  H   -0.033433   0.511950   0.000000  -0.000008  -0.000371   0.000533
    33  H    0.000000   0.000000   0.417732   0.000000   0.000000   0.000000
    34  H    0.000043  -0.000008   0.000000   0.450371   0.000027   0.000022
    35  H    0.000131  -0.000371   0.000000   0.000027   0.461593  -0.019258
    36  H    0.000047   0.000533   0.000000   0.000022  -0.019258   0.476184
    37  H   -0.000060   0.000056   0.000000  -0.000391  -0.019956  -0.018130
    38  H    0.000000   0.000000   0.000000   0.000001   0.000000   0.000000
              37         38
     1  F    0.000000   0.000000
     2  O   -0.000012   0.000000
     3  O    0.000000   0.000309
     4  O    0.000000   0.249764
     5  O    0.000002   0.002959
     6  N    0.000000   0.000000
     7  N   -0.004096   0.000001
     8  C    0.000000   0.000000
     9  C    0.000000   0.000000
    10  C    0.000000   0.000000
    11  C   -0.000038   0.000000
    12  C   -0.000368   0.000000
    13  C   -0.000905   0.000006
    14  C    0.000001   0.000000
    15  C   -0.028360   0.000000
    16  C   -0.000076   0.000045
    17  C    0.005055   0.000000
    18  C    0.000002  -0.000003
    19  C    0.004129  -0.000322
    20  C    0.000016   0.001445
    21  C    0.369309   0.000000
    22  C    0.000161   0.005116
    23  C    0.000018  -0.028768
    24  H    0.000000   0.000000
    25  H    0.000000   0.000000
    26  H    0.000000   0.000000
    27  H    0.000000   0.000000
    28  H    0.000000   0.000000
    29  H    0.000000   0.000000
    30  H   -0.003332   0.000000
    31  H   -0.000060   0.000000
    32  H    0.000056   0.000000
    33  H    0.000000   0.000000
    34  H   -0.000391   0.000001
    35  H   -0.019956   0.000000
    36  H   -0.018130   0.000000
    37  H    0.465202   0.000000
    38  H    0.000000   0.360219
 Mulliken charges:
               1
     1  F   -0.245622
     2  O   -0.335217
     3  O   -0.275228
     4  O   -0.451281
     5  O   -0.354966
     6  N   -0.688431
     7  N   -0.227592
     8  C    0.215498
     9  C   -0.512290
    10  C   -0.541468
    11  C    0.183152
    12  C    0.175769
    13  C    0.178112
    14  C    0.237632
    15  C   -0.079431
    16  C    0.254197
    17  C   -0.335374
    18  C   -0.644844
    19  C   -0.286257
    20  C    0.140627
    21  C   -0.632975
    22  C    0.072287
    23  C    0.203257
    24  H    0.251703
    25  H    0.218594
    26  H    0.241625
    27  H    0.246135
    28  H    0.313091
    29  H    0.293859
    30  H    0.238262
    31  H    0.235620
    32  H    0.233142
    33  H    0.299522
    34  H    0.280405
    35  H    0.237429
    36  H    0.220057
    37  H    0.231774
    38  H    0.409229
 Sum of Mulliken charges =   0.00000
 Mulliken charges with hydrogens summed into heavy atoms:
               1
     1  F   -0.245622
     2  O   -0.335217
     3  O   -0.275228
     4  O   -0.042052
     5  O   -0.354966
     6  N   -0.081481
     7  N   -0.227592
     8  C    0.215498
     9  C   -0.041993
    10  C   -0.053708
    11  C    0.183152
    12  C    0.175769
    13  C    0.178112
    14  C    0.237632
    15  C    0.158831
    16  C    0.254197
    17  C    0.133388
    18  C   -0.345323
    19  C   -0.005851
    20  C    0.140627
    21  C    0.056284
    22  C    0.072287
    23  C    0.203257
 Electronic spatial extent (au):  <R**2>=           7541.3974
 Charge=              0.0000 electrons
 Dipole moment (field-independent basis, Debye):
    X=              1.8139    Y=              7.3528    Z=             -0.3664  Tot=              7.5821
 Quadrupole moment (field-independent basis, Debye-Ang):
   XX=           -150.0665   YY=           -130.1921   ZZ=           -126.4620
   XY=             -1.3739   XZ=              0.3136   YZ=              0.1187
 Traceless Quadrupole moment (field-independent basis, Debye-Ang):
   XX=            -14.4930   YY=              5.3815   ZZ=              9.1115
   XY=             -1.3739   XZ=              0.3136   YZ=              0.1187
 Octapole moment (field-independent basis, Debye-Ang**2):
  XXX=            -37.6782  YYY=             92.0176  ZZZ=             10.9312  XYY=             19.6535
  XXY=            -41.3735  XXZ=              8.7800  XZZ=              7.4597  YZZ=              4.4995
  YYZ=             -7.3960  XYZ=             -4.6344
 Hexadecapole moment (field-independent basis, Debye-Ang**3):
 XXXX=          -6657.6097 YYYY=          -2304.7829 ZZZZ=           -401.1691 XXXY=            361.4947
 XXXZ=             11.3259 YYYX=            -50.9965 YYYZ=             -6.2712 ZZZX=             54.9802
 ZZZY=            -11.9552 XXYY=          -1639.5469 XXZZ=          -1162.4312 YYZZ=           -452.6784
 XXYZ=             11.5966 YYXZ=             -2.7672 ZZXY=              6.7503
 N-N= 1.978181121088D+03 E-N=-6.593402551582D+03  KE= 1.122696016644D+03
 1\1\GINC-NODE045\FOpt\RM06\LANL2DZ\C16H15F1N2O4\SUPERCOMPUTO1\21-Jul-2
 020\0\\#opt M06/lanl2dz integral=ultrafine geom=connectivity\\Title Ca
 rd Required\\0,1\F,2.5504802914,-2.8680335842,0.4764934118\O,1.6970700
 159,1.782253399,-0.2810991077\O,-2.4555591209,-2.6091527776,0.27848253
 06\O,-4.9869988567,-1.5170144938,0.0617019782\O,-5.1379110706,0.737609
 7797,-0.1871763673\N,4.1062077627,0.6210757901,1.1338206229\N,-1.08501
 29145,1.2695955777,-0.2077659319\C,3.634753967,-0.1762274786,0.0340865
 806\C,4.2508978977,0.1559815648,-1.3223441957\C,4.6392832109,-1.119818
 397,-0.6022757005\C,2.1752379649,-0.5355089748,0.049761298\C,1.2263412
 434,0.4819365246,-0.113204179\C,-0.1593650562,0.2187966438,-0.07646379
 23\C,1.6601896466,-1.8265661048,0.2601646171\C,-0.5852814282,2.6648936
 939,-0.2181091223\C,-0.6238572317,-1.0995966533,0.0989378526\C,0.75831
 42077,2.6694108818,-0.9465212937\C,0.3091800964,-2.1306405136,0.271980
 6232\C,-2.4133303273,1.0060956065,-0.1801531781\C,-2.0812676066,-1.425
 5851346,0.1233710854\C,-0.4755603732,3.2067578342,1.2087568543\C,-2.95
 54248068,-0.2565826903,-0.0411921674\C,-4.4284083608,-0.2811962759,-0.
 0630861747\H,4.9598115182,0.9761665992,-1.3269053532\H,3.6179072361,0.
 0750906632,-2.2011910726\H,4.2803456016,-2.0642718112,-0.9948804473\H,
 5.6142146059,-1.1547995346,-0.1301696411\H,3.7439220683,1.5676887588,1
 .169403729\H,4.1894309496,0.1528067326,2.028119545\H,-1.2991094672,3.2
 64006027,-0.7969534369\H,0.635735984,2.3479092979,-1.9894053749\H,1.21
 36132316,3.6606162225,-0.915951448\H,-0.047999578,-3.1445755919,0.4225
 748749\H,-3.088326895,1.855255869,-0.27627882\H,0.2610241926,2.6337870
 285,1.7822584767\H,-0.160161613,4.2556583703,1.1946537936\H,-1.4413589
 44,3.143112519,1.7206054114\H,-5.9665920418,-1.442842368,0.0373895194\
 \Version=ES64L-G09RevD.01\State=1-A\HF=-1128.1236532\RMSD=7.487e-09\RM
 SF=2.847e-06\Dipole=0.707056,2.8856455,-0.2675454\Quadrupole=-10.76211
 27,4.010126,6.7519867,-1.0236986,0.5169144,0.2113941\PG=C01 [X(C16H15F
 1N2O4)]\\@


 I LOVE THOSE WHO LONG FOR THE IMPOSSIBLE.

                                 -- GOETHE
 Job cpu time:       0 days  9 hours 11 minutes 52.2 seconds.
 File lengths (MBytes):  RWF=     38 Int=      0 D2E=      0 Chk=      6 Scr=      1
 Normal termination of Gaussian 09 at Tue Jul 21 13:37:36 2020.
