 Entering Gaussian System, Link 0=g09
 Input=enoxacina.gjf
 Output=enoxacina.log
 Initial command:
 /usr/local/cluster_programs/g09/l1.exe "/tmp/scratch/64198.prometeo/Gau-14545.inp" -scrdir="/tmp/scratch/64198.prometeo/"
 Entering Link 1 = /usr/local/cluster_programs/g09/l1.exe PID=     14546.
  
 Copyright (c) 1988,1990,1992,1993,1995,1998,2003,2009,2013,
            Gaussian, Inc.  All Rights Reserved.
  
 This is part of the Gaussian(R) 09 program.  It is based on
 the Gaussian(R) 03 system (copyright 2003, Gaussian, Inc.),
 the Gaussian(R) 98 system (copyright 1998, Gaussian, Inc.),
 the Gaussian(R) 94 system (copyright 1995, Gaussian, Inc.),
 the Gaussian 92(TM) system (copyright 1992, Gaussian, Inc.),
 the Gaussian 90(TM) system (copyright 1990, Gaussian, Inc.),
 the Gaussian 88(TM) system (copyright 1988, Gaussian, Inc.),
 the Gaussian 86(TM) system (copyright 1986, Carnegie Mellon
 University), and the Gaussian 82(TM) system (copyright 1983,
 Carnegie Mellon University). Gaussian is a federally registered
 trademark of Gaussian, Inc.
  
 This software contains proprietary and confidential information,
 including trade secrets, belonging to Gaussian, Inc.
  
 This software is provided under written license and may be
 used, copied, transmitted, or stored only in accord with that
 written license.
  
 The following legend is applicable only to US Government
 contracts under FAR:
  
                    RESTRICTED RIGHTS LEGEND
  
 Use, reproduction and disclosure by the US Government is
 subject to restrictions as set forth in subparagraphs (a)
 and (c) of the Commercial Computer Software - Restricted
 Rights clause in FAR 52.227-19.
  
 Gaussian, Inc.
 340 Quinnipiac St., Bldg. 40, Wallingford CT 06492
  
  
 ---------------------------------------------------------------
 Warning -- This program may not be used in any manner that
 competes with the business of Gaussian, Inc. or will provide
 assistance to any competitor of Gaussian, Inc.  The licensee
 of this program is prohibited from giving any competitor of
 Gaussian, Inc. access to this program.  By using this program,
 the user acknowledges that Gaussian, Inc. is engaged in the
 business of creating and licensing software in the field of
 computational chemistry and represents and warrants to the
 licensee that it is not a competitor of Gaussian, Inc. and that
 it will not use this program in any manner prohibited above.
 ---------------------------------------------------------------
  

 Cite this work as:
 Gaussian 09, Revision D.01,
 M. J. Frisch, G. W. Trucks, H. B. Schlegel, G. E. Scuseria, 
 M. A. Robb, J. R. Cheeseman, G. Scalmani, V. Barone, B. Mennucci, 
 G. A. Petersson, H. Nakatsuji, M. Caricato, X. Li, H. P. Hratchian, 
 A. F. Izmaylov, J. Bloino, G. Zheng, J. L. Sonnenberg, M. Hada, 
 M. Ehara, K. Toyota, R. Fukuda, J. Hasegawa, M. Ishida, T. Nakajima, 
 Y. Honda, O. Kitao, H. Nakai, T. Vreven, J. A. Montgomery, Jr., 
 J. E. Peralta, F. Ogliaro, M. Bearpark, J. J. Heyd, E. Brothers, 
 K. N. Kudin, V. N. Staroverov, T. Keith, R. Kobayashi, J. Normand, 
 K. Raghavachari, A. Rendell, J. C. Burant, S. S. Iyengar, J. Tomasi, 
 M. Cossi, N. Rega, J. M. Millam, M. Klene, J. E. Knox, J. B. Cross, 
 V. Bakken, C. Adamo, J. Jaramillo, R. Gomperts, R. E. Stratmann, 
 O. Yazyev, A. J. Austin, R. Cammi, C. Pomelli, J. W. Ochterski, 
 R. L. Martin, K. Morokuma, V. G. Zakrzewski, G. A. Voth, 
 P. Salvador, J. J. Dannenberg, S. Dapprich, A. D. Daniels, 
 O. Farkas, J. B. Foresman, J. V. Ortiz, J. Cioslowski, 
 and D. J. Fox, Gaussian, Inc., Wallingford CT, 2013.
 
 ******************************************
 Gaussian 09:  ES64L-G09RevD.01 24-Apr-2013
                21-Jul-2020 
 ******************************************
 %nprocshared=20
 Will use up to   20 processors via shared memory.
 -----------------------------------------------------
 #opt M06/lanl2dz integral=ultrafine geom=connectivity
 -----------------------------------------------------
 1/14=-1,18=20,19=15,26=4,38=1,57=2/1,3;
 2/9=110,12=2,17=6,18=5,40=1/2;
 3/5=6,6=3,11=2,16=1,25=1,30=1,71=1,74=-54,75=-5/1,2,3;
 4//1;
 5/5=2,38=5/2;
 6/7=2,8=2,9=2,10=2,28=1/1;
 7//1,2,3,16;
 1/14=-1,18=20,19=15,26=4/3(2);
 2/9=110/2;
 99//99;
 2/9=110/2;
 3/5=6,6=3,11=2,16=1,25=1,30=1,71=1,74=-54,75=-5/1,2,3;
 4/5=5,16=3,69=1/1;
 5/5=2,38=5/2;
 7//1,2,3,16;
 1/14=-1,18=20,19=15,26=4/3(-5);
 2/9=110/2;
 6/7=2,8=2,9=2,10=2,19=2,28=1/1;
 99/9=1/99;
 -------------------
 Title Card Required
 -------------------
 Symbolic Z-matrix:
 Charge =  0 Multiplicity = 1
 F(PDBName=F1,ResName=MOL,ResNum=1) 0     1.92231  -2.983     0.16637  L 
 O(PDBName=O2,ResName=MOL,ResNum=1) 0    -3.03263  -2.37416  -0.33056  L 
 O(PDBName=O3,ResName=MOL,ResNum=1) 0    -5.44221  -1.08915  -0.38873  L 
 O(PDBName=O4,ResName=MOL,ResNum=1) 0    -5.46893   1.17127  -0.07705  L 
 N(PDBName=N5,ResName=MOL,ResNum=1) 0     2.93763  -0.27141   0.57672  L 
 N(PDBName=N6,ResName=MOL,ResNum=1) 0     5.28621   0.74377  -0.64108  L 
 N(PDBName=N7,ResName=MOL,ResNum=1) 0    -1.41085   1.38396   0.36388  L 
 N(PDBName=N8,ResName=MOL,ResNum=1) 0     0.74229   0.46905   0.44185  L 
 C(PDBName=C9,ResName=MOL,ResNum=1) 0     3.37577   1.12004   0.83526  L 
 C(PDBName=C10,ResName=MOL,ResNum=1) 0     4.07451  -1.17623   0.27883  L 
 C(PDBName=C11,ResName=MOL,ResNum=1) 0     4.13959   1.64915  -0.39234  L 
 C(PDBName=C12,ResName=MOL,ResNum=1) 0     4.83911  -0.63469  -0.94533  L 
 C(PDBName=C13,ResName=MOL,ResNum=1) 0     1.6139   -0.56411   0.39609  L 
 C(PDBName=C14,ResName=MOL,ResNum=1) 0    -0.57242   0.26424   0.29049  L 
 C(PDBName=C15,ResName=MOL,ResNum=1) 0    -1.14428  -0.99169   0.06064  L 
 C(PDBName=C16,ResName=MOL,ResNum=1) 0     1.0884   -1.87908   0.18939  L 
 C(PDBName=C17,ResName=MOL,ResNum=1) 0    -0.25305  -2.07271   0.01718  L 
 C(PDBName=C18,ResName=MOL,ResNum=1) 0    -0.83043   2.74006   0.56916  L 
 C(PDBName=C19,ResName=MOL,ResNum=1) 0    -2.5923   -1.22586  -0.12427  L 
 C(PDBName=C20,ResName=MOL,ResNum=1) 0    -2.74948   1.21364   0.20054  L 
 C(PDBName=C21,ResName=MOL,ResNum=1) 0    -3.36789   0.01443  -0.02986  L 
 C(PDBName=C22,ResName=MOL,ResNum=1) 0    -0.27383   3.3232   -0.74119  L 
 C(PDBName=C23,ResName=MOL,ResNum=1) 0    -4.82816   0.11564  -0.16025  L 
 H(PDBName=H24,ResName=MOL,ResNum=1) 0     4.05785   1.10634   1.69218  L 
 H(PDBName=H25,ResName=MOL,ResNum=1) 0     2.49406   1.72009   1.0459   L 
 H(PDBName=H26,ResName=MOL,ResNum=1) 0     3.70642  -2.1791    0.10326  L 
 H(PDBName=H27,ResName=MOL,ResNum=1) 0     4.7525   -1.16472   1.13911  L 
 H(PDBName=H28,ResName=MOL,ResNum=1) 0     3.43265   1.70571  -1.24042  L 
 H(PDBName=H29,ResName=MOL,ResNum=1) 0     4.52151   2.65319  -0.18076  L 
 H(PDBName=H30,ResName=MOL,ResNum=1) 0     5.71909  -1.26052  -1.12606  L 
 H(PDBName=H31,ResName=MOL,ResNum=1) 0     4.17159  -0.69513  -1.82464  L 
 H(PDBName=H32,ResName=MOL,ResNum=1) 0     5.91217   1.10981  -1.36397  L 
 H(PDBName=H33,ResName=MOL,ResNum=1) 0    -0.65882  -3.0633   -0.14332  L 
 H(PDBName=H34,ResName=MOL,ResNum=1) 0    -1.62932   3.36808   0.97155  L 
 H(PDBName=H35,ResName=MOL,ResNum=1) 0    -0.0368    2.64378   1.31071  L 
 H(PDBName=H36,ResName=MOL,ResNum=1) 0    -3.37005   2.09977   0.26397  L 
 H(PDBName=H37,ResName=MOL,ResNum=1) 0     0.53601   2.68696  -1.10584  L 
 H(PDBName=H38,ResName=MOL,ResNum=1) 0    -1.05903   3.38015  -1.50116  L 
 H(PDBName=H39,ResName=MOL,ResNum=1) 0     0.11714   4.33078  -0.56229  L 
 H(PDBName=H40,ResName=MOL,ResNum=1) 0    -6.42117  -0.91234  -0.46031  L 
 
 Center=      0.60747610      0.41189785     -0.06065928
 Residue   1 PDB Number     1_0 MOL charge    0.00000000 layers R        AvRTP=      0.00000000     90.00000000     97.12501635

 GradGradGradGradGradGradGradGradGradGradGradGradGradGradGradGradGradGrad
 Berny optimization.
 Initialization pass.
                           ----------------------------
                           !    Initial Parameters    !
                           ! (Angstroms and Degrees)  !
 --------------------------                            --------------------------
 ! Name  Definition              Value          Derivative Info.                !
 --------------------------------------------------------------------------------
 ! R1    R(1,16)                 1.3837         estimate D2E/DX2                !
 ! R2    R(2,19)                 1.247          estimate D2E/DX2                !
 ! R3    R(3,23)                 1.3714         estimate D2E/DX2                !
 ! R4    R(3,40)                 0.9974         estimate D2E/DX2                !
 ! R5    R(4,23)                 1.2377         estimate D2E/DX2                !
 ! R6    R(5,9)                  1.4815         estimate D2E/DX2                !
 ! R7    R(5,10)                 1.4832         estimate D2E/DX2                !
 ! R8    R(5,13)                 1.3677         estimate D2E/DX2                !
 ! R9    R(6,11)                 1.482          estimate D2E/DX2                !
 ! R10   R(6,12)                 1.4807         estimate D2E/DX2                !
 ! R11   R(6,32)                 1.0239         estimate D2E/DX2                !
 ! R12   R(7,14)                 1.4008         estimate D2E/DX2                !
 ! R13   R(7,18)                 1.4893         estimate D2E/DX2                !
 ! R14   R(7,20)                 1.3593         estimate D2E/DX2                !
 ! R15   R(8,13)                 1.3525         estimate D2E/DX2                !
 ! R16   R(8,14)                 1.3391         estimate D2E/DX2                !
 ! R17   R(9,11)                 1.5396         estimate D2E/DX2                !
 ! R18   R(9,24)                 1.0953         estimate D2E/DX2                !
 ! R19   R(9,25)                 1.0871         estimate D2E/DX2                !
 ! R20   R(10,12)                1.5416         estimate D2E/DX2                !
 ! R21   R(10,26)                1.0826         estimate D2E/DX2                !
 ! R22   R(10,27)                1.0954         estimate D2E/DX2                !
 ! R23   R(11,28)                1.1055         estimate D2E/DX2                !
 ! R24   R(11,29)                1.0949         estimate D2E/DX2                !
 ! R25   R(12,30)                1.0948         estimate D2E/DX2                !
 ! R26   R(12,31)                1.1056         estimate D2E/DX2                !
 ! R27   R(13,16)                1.4311         estimate D2E/DX2                !
 ! R28   R(14,15)                1.399          estimate D2E/DX2                !
 ! R29   R(15,17)                1.4017         estimate D2E/DX2                !
 ! R30   R(15,19)                1.4784         estimate D2E/DX2                !
 ! R31   R(16,17)                1.3663         estimate D2E/DX2                !
 ! R32   R(17,33)                1.0824         estimate D2E/DX2                !
 ! R33   R(18,22)                1.5385         estimate D2E/DX2                !
 ! R34   R(18,34)                1.093          estimate D2E/DX2                !
 ! R35   R(18,35)                1.0904         estimate D2E/DX2                !
 ! R36   R(19,21)                1.4659         estimate D2E/DX2                !
 ! R37   R(20,21)                1.3688         estimate D2E/DX2                !
 ! R38   R(20,36)                1.0837         estimate D2E/DX2                !
 ! R39   R(21,23)                1.4696         estimate D2E/DX2                !
 ! R40   R(22,37)                1.0925         estimate D2E/DX2                !
 ! R41   R(22,38)                1.0942         estimate D2E/DX2                !
 ! R42   R(22,39)                1.0955         estimate D2E/DX2                !
 ! A1    A(23,3,40)            107.1998         estimate D2E/DX2                !
 ! A2    A(9,5,10)             112.4156         estimate D2E/DX2                !
 ! A3    A(9,5,13)             120.6821         estimate D2E/DX2                !
 ! A4    A(10,5,13)            125.7872         estimate D2E/DX2                !
 ! A5    A(11,6,12)            111.6901         estimate D2E/DX2                !
 ! A6    A(11,6,32)            111.9066         estimate D2E/DX2                !
 ! A7    A(12,6,32)            111.8594         estimate D2E/DX2                !
 ! A8    A(14,7,18)            120.1206         estimate D2E/DX2                !
 ! A9    A(14,7,20)            118.8816         estimate D2E/DX2                !
 ! A10   A(18,7,20)            120.962          estimate D2E/DX2                !
 ! A11   A(13,8,14)            120.7994         estimate D2E/DX2                !
 ! A12   A(5,9,11)             109.2894         estimate D2E/DX2                !
 ! A13   A(5,9,24)             107.9951         estimate D2E/DX2                !
 ! A14   A(5,9,25)             108.2011         estimate D2E/DX2                !
 ! A15   A(11,9,24)            108.612          estimate D2E/DX2                !
 ! A16   A(11,9,25)            111.5421         estimate D2E/DX2                !
 ! A17   A(24,9,25)            111.1232         estimate D2E/DX2                !
 ! A18   A(5,10,12)            108.9871         estimate D2E/DX2                !
 ! A19   A(5,10,26)            109.6984         estimate D2E/DX2                !
 ! A20   A(5,10,27)            108.0756         estimate D2E/DX2                !
 ! A21   A(12,10,26)           111.4246         estimate D2E/DX2                !
 ! A22   A(12,10,27)           108.2384         estimate D2E/DX2                !
 ! A23   A(26,10,27)           110.3367         estimate D2E/DX2                !
 ! A24   A(6,11,9)             107.9221         estimate D2E/DX2                !
 ! A25   A(6,11,28)            113.4066         estimate D2E/DX2                !
 ! A26   A(6,11,29)            108.8313         estimate D2E/DX2                !
 ! A27   A(9,11,28)            108.1799         estimate D2E/DX2                !
 ! A28   A(9,11,29)            109.5196         estimate D2E/DX2                !
 ! A29   A(28,11,29)           108.9283         estimate D2E/DX2                !
 ! A30   A(6,12,10)            108.2778         estimate D2E/DX2                !
 ! A31   A(6,12,30)            108.8666         estimate D2E/DX2                !
 ! A32   A(6,12,31)            113.3654         estimate D2E/DX2                !
 ! A33   A(10,12,30)           109.2035         estimate D2E/DX2                !
 ! A34   A(10,12,31)           108.2335         estimate D2E/DX2                !
 ! A35   A(30,12,31)           108.828          estimate D2E/DX2                !
 ! A36   A(5,13,8)             117.1158         estimate D2E/DX2                !
 ! A37   A(5,13,16)            124.8286         estimate D2E/DX2                !
 ! A38   A(8,13,16)            118.0443         estimate D2E/DX2                !
 ! A39   A(7,14,8)             117.3516         estimate D2E/DX2                !
 ! A40   A(7,14,15)            118.7872         estimate D2E/DX2                !
 ! A41   A(8,14,15)            123.8607         estimate D2E/DX2                !
 ! A42   A(14,15,17)           115.9468         estimate D2E/DX2                !
 ! A43   A(14,15,19)           124.2698         estimate D2E/DX2                !
 ! A44   A(17,15,19)           119.7825         estimate D2E/DX2                !
 ! A45   A(1,16,13)            120.9427         estimate D2E/DX2                !
 ! A46   A(1,16,17)            118.4614         estimate D2E/DX2                !
 ! A47   A(13,16,17)           120.5949         estimate D2E/DX2                !
 ! A48   A(15,17,16)           120.7353         estimate D2E/DX2                !
 ! A49   A(15,17,33)           118.166          estimate D2E/DX2                !
 ! A50   A(16,17,33)           121.0939         estimate D2E/DX2                !
 ! A51   A(7,18,22)            111.6377         estimate D2E/DX2                !
 ! A52   A(7,18,34)            106.8036         estimate D2E/DX2                !
 ! A53   A(7,18,35)            107.2768         estimate D2E/DX2                !
 ! A54   A(22,18,34)           111.1142         estimate D2E/DX2                !
 ! A55   A(22,18,35)           110.4491         estimate D2E/DX2                !
 ! A56   A(34,18,35)           109.4118         estimate D2E/DX2                !
 ! A57   A(2,19,15)            120.8223         estimate D2E/DX2                !
 ! A58   A(2,19,21)            127.0825         estimate D2E/DX2                !
 ! A59   A(15,19,21)           112.095          estimate D2E/DX2                !
 ! A60   A(7,20,21)            125.0951         estimate D2E/DX2                !
 ! A61   A(7,20,36)            117.0298         estimate D2E/DX2                !
 ! A62   A(21,20,36)           117.8742         estimate D2E/DX2                !
 ! A63   A(19,21,20)           120.8692         estimate D2E/DX2                !
 ! A64   A(19,21,23)           125.3318         estimate D2E/DX2                !
 ! A65   A(20,21,23)           113.7988         estimate D2E/DX2                !
 ! A66   A(18,22,37)           109.3735         estimate D2E/DX2                !
 ! A67   A(18,22,38)           110.589          estimate D2E/DX2                !
 ! A68   A(18,22,39)           109.7949         estimate D2E/DX2                !
 ! A69   A(37,22,38)           109.2938         estimate D2E/DX2                !
 ! A70   A(37,22,39)           109.0009         estimate D2E/DX2                !
 ! A71   A(38,22,39)           108.7625         estimate D2E/DX2                !
 ! A72   A(3,23,4)             121.9152         estimate D2E/DX2                !
 ! A73   A(3,23,21)            113.528          estimate D2E/DX2                !
 ! A74   A(4,23,21)            124.5568         estimate D2E/DX2                !
 ! D1    D(40,3,23,4)           -0.0584         estimate D2E/DX2                !
 ! D2    D(40,3,23,21)         179.961          estimate D2E/DX2                !
 ! D3    D(10,5,9,11)           58.4367         estimate D2E/DX2                !
 ! D4    D(10,5,9,24)          -59.5467         estimate D2E/DX2                !
 ! D5    D(10,5,9,25)         -179.9226         estimate D2E/DX2                !
 ! D6    D(13,5,9,11)         -110.1671         estimate D2E/DX2                !
 ! D7    D(13,5,9,24)          131.8495         estimate D2E/DX2                !
 ! D8    D(13,5,9,25)           11.4736         estimate D2E/DX2                !
 ! D9    D(9,5,10,12)          -58.0869         estimate D2E/DX2                !
 ! D10   D(9,5,10,26)          179.6714         estimate D2E/DX2                !
 ! D11   D(9,5,10,27)           59.3299         estimate D2E/DX2                !
 ! D12   D(13,5,10,12)         109.821          estimate D2E/DX2                !
 ! D13   D(13,5,10,26)         -12.4206         estimate D2E/DX2                !
 ! D14   D(13,5,10,27)        -132.7621         estimate D2E/DX2                !
 ! D15   D(9,5,13,8)             1.1009         estimate D2E/DX2                !
 ! D16   D(9,5,13,16)         -177.6466         estimate D2E/DX2                !
 ! D17   D(10,5,13,8)         -165.8858         estimate D2E/DX2                !
 ! D18   D(10,5,13,16)          15.3667         estimate D2E/DX2                !
 ! D19   D(12,6,11,9)           61.6649         estimate D2E/DX2                !
 ! D20   D(12,6,11,28)         -58.1577         estimate D2E/DX2                !
 ! D21   D(12,6,11,29)        -179.563          estimate D2E/DX2                !
 ! D22   D(32,6,11,9)         -172.0479         estimate D2E/DX2                !
 ! D23   D(32,6,11,28)          68.1295         estimate D2E/DX2                !
 ! D24   D(32,6,11,29)         -53.2758         estimate D2E/DX2                !
 ! D25   D(11,6,12,10)         -61.6974         estimate D2E/DX2                !
 ! D26   D(11,6,12,30)         179.6867         estimate D2E/DX2                !
 ! D27   D(11,6,12,31)          58.4114         estimate D2E/DX2                !
 ! D28   D(32,6,12,10)         171.9896         estimate D2E/DX2                !
 ! D29   D(32,6,12,30)          53.3737         estimate D2E/DX2                !
 ! D30   D(32,6,12,31)         -67.9016         estimate D2E/DX2                !
 ! D31   D(18,7,14,8)            1.4716         estimate D2E/DX2                !
 ! D32   D(18,7,14,15)        -178.2767         estimate D2E/DX2                !
 ! D33   D(20,7,14,8)          179.3154         estimate D2E/DX2                !
 ! D34   D(20,7,14,15)          -0.433          estimate D2E/DX2                !
 ! D35   D(14,7,18,22)          79.7395         estimate D2E/DX2                !
 ! D36   D(14,7,18,34)        -158.6181         estimate D2E/DX2                !
 ! D37   D(14,7,18,35)         -41.3917         estimate D2E/DX2                !
 ! D38   D(20,7,18,22)         -98.0587         estimate D2E/DX2                !
 ! D39   D(20,7,18,34)          23.5837         estimate D2E/DX2                !
 ! D40   D(20,7,18,35)         140.8101         estimate D2E/DX2                !
 ! D41   D(14,7,20,21)           0.2806         estimate D2E/DX2                !
 ! D42   D(14,7,20,36)         179.9479         estimate D2E/DX2                !
 ! D43   D(18,7,20,21)         178.1055         estimate D2E/DX2                !
 ! D44   D(18,7,20,36)          -2.2271         estimate D2E/DX2                !
 ! D45   D(14,8,13,5)         -179.19           estimate D2E/DX2                !
 ! D46   D(14,8,13,16)          -0.3549         estimate D2E/DX2                !
 ! D47   D(13,8,14,7)          179.3798         estimate D2E/DX2                !
 ! D48   D(13,8,14,15)          -0.8858         estimate D2E/DX2                !
 ! D49   D(5,9,11,6)           -57.9997         estimate D2E/DX2                !
 ! D50   D(5,9,11,28)           65.0699         estimate D2E/DX2                !
 ! D51   D(5,9,11,29)         -176.3319         estimate D2E/DX2                !
 ! D52   D(24,9,11,6)           59.5965         estimate D2E/DX2                !
 ! D53   D(24,9,11,28)        -177.3338         estimate D2E/DX2                !
 ! D54   D(24,9,11,29)         -58.7357         estimate D2E/DX2                !
 ! D55   D(25,9,11,6)         -177.5999         estimate D2E/DX2                !
 ! D56   D(25,9,11,28)         -54.5302         estimate D2E/DX2                !
 ! D57   D(25,9,11,29)          64.0679         estimate D2E/DX2                !
 ! D58   D(5,10,12,6)           57.7011         estimate D2E/DX2                !
 ! D59   D(5,10,12,30)         176.1031         estimate D2E/DX2                !
 ! D60   D(5,10,12,31)         -65.5667         estimate D2E/DX2                !
 ! D61   D(26,10,12,6)         178.8951         estimate D2E/DX2                !
 ! D62   D(26,10,12,30)        -62.703          estimate D2E/DX2                !
 ! D63   D(26,10,12,31)         55.6273         estimate D2E/DX2                !
 ! D64   D(27,10,12,6)         -59.6126         estimate D2E/DX2                !
 ! D65   D(27,10,12,30)         58.7894         estimate D2E/DX2                !
 ! D66   D(27,10,12,31)        177.1196         estimate D2E/DX2                !
 ! D67   D(5,13,16,1)            0.3941         estimate D2E/DX2                !
 ! D68   D(5,13,16,17)        -179.9632         estimate D2E/DX2                !
 ! D69   D(8,13,16,1)         -178.3427         estimate D2E/DX2                !
 ! D70   D(8,13,16,17)           1.3            estimate D2E/DX2                !
 ! D71   D(7,14,15,17)        -179.13           estimate D2E/DX2                !
 ! D72   D(7,14,15,19)           0.5164         estimate D2E/DX2                !
 ! D73   D(8,14,15,17)           1.1392         estimate D2E/DX2                !
 ! D74   D(8,14,15,19)        -179.2144         estimate D2E/DX2                !
 ! D75   D(14,15,17,16)         -0.1484         estimate D2E/DX2                !
 ! D76   D(14,15,17,33)        179.0682         estimate D2E/DX2                !
 ! D77   D(19,15,17,16)       -179.8118         estimate D2E/DX2                !
 ! D78   D(19,15,17,33)         -0.5951         estimate D2E/DX2                !
 ! D79   D(14,15,19,2)         179.7429         estimate D2E/DX2                !
 ! D80   D(14,15,19,21)         -0.3884         estimate D2E/DX2                !
 ! D81   D(17,15,19,2)          -0.6234         estimate D2E/DX2                !
 ! D82   D(17,15,19,21)        179.2453         estimate D2E/DX2                !
 ! D83   D(1,16,17,15)         178.6208         estimate D2E/DX2                !
 ! D84   D(1,16,17,33)          -0.5727         estimate D2E/DX2                !
 ! D85   D(13,16,17,15)         -1.0307         estimate D2E/DX2                !
 ! D86   D(13,16,17,33)        179.7758         estimate D2E/DX2                !
 ! D87   D(7,18,22,37)         -62.1459         estimate D2E/DX2                !
 ! D88   D(7,18,22,38)          58.2674         estimate D2E/DX2                !
 ! D89   D(7,18,22,39)         178.2924         estimate D2E/DX2                !
 ! D90   D(34,18,22,37)        178.7385         estimate D2E/DX2                !
 ! D91   D(34,18,22,38)        -60.8482         estimate D2E/DX2                !
 ! D92   D(34,18,22,39)         59.1768         estimate D2E/DX2                !
 ! D93   D(35,18,22,37)         57.1227         estimate D2E/DX2                !
 ! D94   D(35,18,22,38)        177.536          estimate D2E/DX2                !
 ! D95   D(35,18,22,39)        -62.439          estimate D2E/DX2                !
 ! D96   D(2,19,21,20)        -179.9369         estimate D2E/DX2                !
 ! D97   D(2,19,21,23)           0.2488         estimate D2E/DX2                !
 ! D98   D(15,19,21,20)          0.2044         estimate D2E/DX2                !
 ! D99   D(15,19,21,23)       -179.6099         estimate D2E/DX2                !
 ! D100  D(7,20,21,19)          -0.1743         estimate D2E/DX2                !
 ! D101  D(7,20,21,23)         179.6601         estimate D2E/DX2                !
 ! D102  D(36,20,21,19)       -179.8391         estimate D2E/DX2                !
 ! D103  D(36,20,21,23)         -0.0047         estimate D2E/DX2                !
 ! D104  D(19,21,23,3)          -0.0719         estimate D2E/DX2                !
 ! D105  D(19,21,23,4)         179.948          estimate D2E/DX2                !
 ! D106  D(20,21,23,3)        -179.8977         estimate D2E/DX2                !
 ! D107  D(20,21,23,4)           0.1222         estimate D2E/DX2                !
 --------------------------------------------------------------------------------
 Trust Radius=3.00D-01 FncErr=1.00D-07 GrdErr=1.00D-06
 Number of steps in this run=    233 maximum allowed number of steps=    240.
 GradGradGradGradGradGradGradGradGradGradGradGradGradGradGradGradGradGrad

                          Input orientation:                          
 ---------------------------------------------------------------------
 Center     Atomic      Atomic             Coordinates (Angstroms)
 Number     Number       Type             X           Y           Z
 ---------------------------------------------------------------------
      1          9           0        1.922309   -2.983004    0.166365
      2          8           0       -3.032628   -2.374160   -0.330560
      3          8           0       -5.442213   -1.089149   -0.388729
      4          8           0       -5.468931    1.171265   -0.077049
      5          7           0        2.937631   -0.271405    0.576717
      6          7           0        5.286213    0.743772   -0.641083
      7          7           0       -1.410847    1.383963    0.363876
      8          7           0        0.742289    0.469053    0.441849
      9          6           0        3.375767    1.120043    0.835258
     10          6           0        4.074505   -1.176232    0.278827
     11          6           0        4.139589    1.649148   -0.392343
     12          6           0        4.839112   -0.634688   -0.945331
     13          6           0        1.613904   -0.564106    0.396091
     14          6           0       -0.572417    0.264238    0.290492
     15          6           0       -1.144280   -0.991692    0.060635
     16          6           0        1.088403   -1.879080    0.189390
     17          6           0       -0.253050   -2.072707    0.017178
     18          6           0       -0.830429    2.740057    0.569158
     19          6           0       -2.592304   -1.225859   -0.124265
     20          6           0       -2.749484    1.213636    0.200543
     21          6           0       -3.367892    0.014429   -0.029859
     22          6           0       -0.273833    3.323197   -0.741190
     23          6           0       -4.828156    0.115641   -0.160249
     24          1           0        4.057848    1.106341    1.692176
     25          1           0        2.494057    1.720085    1.045901
     26          1           0        3.706416   -2.179101    0.103263
     27          1           0        4.752496   -1.164719    1.139114
     28          1           0        3.432645    1.705714   -1.240422
     29          1           0        4.521511    2.653193   -0.180762
     30          1           0        5.719085   -1.260523   -1.126056
     31          1           0        4.171594   -0.695126   -1.824640
     32          1           0        5.912171    1.109815   -1.363970
     33          1           0       -0.658816   -3.063301   -0.143316
     34          1           0       -1.629319    3.368077    0.971554
     35          1           0       -0.036798    2.643775    1.310706
     36          1           0       -3.370048    2.099767    0.263967
     37          1           0        0.536005    2.686962   -1.105845
     38          1           0       -1.059032    3.380154   -1.501157
     39          1           0        0.117138    4.330776   -0.562291
     40          1           0       -6.421167   -0.912335   -0.460314
 ---------------------------------------------------------------------
                    Distance matrix (angstroms):
                    1          2          3          4          5
     1  F    0.000000
     2  O    5.016874   0.000000
     3  O    7.624369   2.731435   0.000000
     4  O    8.482195   4.309278   2.281957   0.000000
     5  N    2.924387   6.394429   8.474820   8.554472   0.000000
     6  N    5.084947   8.889378  10.886800  10.778405   2.833630
     7  N    5.497212   4.151615   4.789009   4.087505   4.657768
     8  N    3.658557   4.788577   6.431634   6.272289   2.320774
     9  C    4.403970   7.391624   9.172538   8.891772   1.481531
    10  C    2.812298   7.233099   9.540500   9.834356   1.483217
    11  C    5.165783   8.223839   9.965401   9.625562   2.464205
    12  C    3.906174   8.085048  10.306405  10.501006   2.462567
    13  C    2.449276   5.039303   7.119017   7.307662   1.367682
    14  C    4.096785   3.660531   5.099795   4.993359   3.562201
    15  C    3.657933   2.372785   4.322459   4.837349   4.176979
    16  C    1.383683   4.183103   6.603572   7.237004   2.480783
    17  C    2.362855   2.817419   5.297127   6.143098   3.706510
    18  C    6.363430   5.640424   6.070331   4.939068   4.823612
    19  C    4.853221   1.247012   2.865417   3.744785   5.655311
    20  C    6.280016   3.637928   3.591775   2.733906   5.889833
    21  C    6.083530   2.430675   2.376863   2.398929   6.341077
    22  C    6.739055   6.343457   6.804791   5.662238   4.997154
    23  C    7.434854   3.074416   1.371418   1.237682   7.810273
    24  H    4.859153   8.153539   9.970030   9.689886   2.096979
    25  H    4.818664   7.014395   8.540160   8.060484   2.093543
    26  H    1.957876   6.755810   9.226455   9.769568   2.110567
    27  H    3.501765   8.014415  10.308836  10.555257   2.099532
    28  H    5.122913   7.698894   9.343433   8.993171   2.730574
    29  H    6.216355   9.075337  10.645383  10.100287   3.411118
    30  H    4.364951   8.858074  11.186939  11.497204   3.407973
    31  H    3.775946   7.546671   9.728432   9.973826   2.732896
    32  H    5.917102   9.654815  11.606402  11.453795   3.810764
    33  H    2.600876   2.478903   5.180578   6.408834   4.609508
    34  H    7.321108   6.052938   6.021245   4.546226   5.853098
    35  H    6.066981   6.070290   6.785375   5.796742   4.228976
    36  H    7.338469   4.525852   3.858635   2.320284   6.745894
    37  H    5.974016   6.241087   7.107205   6.278138   4.165424
    38  H    7.222105   6.194958   6.358022   5.133662   5.798686
    39  H    7.568419   7.411538   7.766086   6.436003   5.516574
    40  H    8.619396   3.692691   0.997366   2.322721   9.437867
                    6          7          8          9         10
     6  N    0.000000
     7  N    6.802235   0.000000
     8  N    4.679258   2.340755   0.000000
     9  C    2.443556   4.817004   2.741125   0.000000
    10  C    2.449671   6.054000   3.719839   2.463885   0.000000
    11  C    1.482000   5.607988   3.691903   1.539604   2.904734
    12  C    1.480749   6.697086   4.463908   2.896715   1.541576
    13  C    4.033873   3.597934   1.352488   2.476568   2.538308
    14  C    5.951582   1.400762   1.339145   4.076436   4.865077
    15  C    6.697424   2.409720   2.416246   5.048791   5.226603
    16  C    5.019028   4.113897   2.386893   3.826737   3.069006
    17  C    6.248944   3.661866   2.762533   4.902165   4.427173
    18  C    6.546995   1.489301   2.765341   4.515234   6.283310
    19  C    8.137418   2.906079   3.783216   6.483966   6.679168
    20  C    8.093302   1.359278   3.578423   6.158760   7.230797
    21  C    8.706266   2.420883   4.162064   6.888232   7.543357
    22  C    6.130054   2.504915   3.252418   4.545179   6.339822
    23  C   10.145256   3.682574   5.614025   8.324915   9.006614
    24  H    2.661660   5.634543   3.600331   1.095322   2.684767
    25  H    3.405178   3.978242   2.235766   1.087122   3.387458
    26  H    3.404849   6.240971   3.989161   3.395511   1.082616
    27  H    2.663887   6.714430   4.386018   2.684744   1.095399
    28  H    2.172615   5.112408   3.405493   2.157474   3.320499
    29  H    2.107736   6.091014   4.409153   2.166928   3.882722
    30  H    2.107077   7.749138   5.497114   3.873627   2.164589
    31  H    2.171085   6.346327   4.272285   3.317113   2.159968
    32  H    1.023903   7.529090   5.513550   3.357090   3.361816
    33  H    7.077072   4.538827   3.844872   5.893711   5.113078
    34  H    7.570479   2.086555   3.782784   5.488453   7.325587
    35  H    5.979460   2.090843   2.468057   3.767414   5.706141
    36  H    8.808444   2.088259   4.427436   6.840486   8.133496
    37  H    5.153297   2.765523   2.712385   3.779863   5.418724
    38  H    6.924765   2.754433   3.936310   5.498580   7.090994
    39  H    6.292229   3.446191   4.038814   4.783368   6.833401
    40  H   11.825317   5.572753   7.351002  10.089053  10.524975
                   11         12         13         14         15
    11  C    0.000000
    12  C    2.451741   0.000000
    13  C    3.449523   3.493760   0.000000
    14  C    4.958552   5.623164   2.340364   0.000000
    15  C    5.924398   6.077861   2.811217   1.399007   0.000000
    16  C    4.700696   4.111438   1.431095   2.713366   2.406015
    17  C    5.771931   5.378144   2.430014   2.374449   1.401704
    18  C    5.178383   6.769511   4.113661   2.504776   3.779292
    19  C    7.325020   7.499972   4.289624   2.544083   1.478444
    20  C    6.928240   7.894056   4.715693   2.376777   2.731250
    21  C    7.691942   8.283378   5.033332   2.824838   2.442318
    22  C    4.733120   6.469060   4.468566   3.242029   4.474245
    23  C    9.100877   9.728074   6.501670   4.282121   3.853040
    24  H    2.155584   3.255457   3.231577   4.910520   5.841730
    25  H    2.186631   3.874177   2.532677   3.477556   4.643488
    26  H    3.884425   2.183520   2.659429   4.930859   4.994097
    27  H    3.261727   2.152521   3.280789   5.578241   5.997084
    28  H    1.105535   2.746399   3.337376   4.523502   5.469643
    29  H    1.094869   3.390516   4.374694   5.645998   6.741264
    30  H    3.391066   1.094844   4.433333   6.626802   6.970386
    31  H    2.747384   1.105630   3.389777   5.282026   5.648073
    32  H    2.092125   2.090456   4.937097   6.745526   7.499289
    33  H    6.730073   6.063712   3.420847   3.356809   2.137483
    34  H    6.172133   7.844563   5.129495   3.348836   4.480248
    35  H    4.618643   6.293848   3.721806   2.643846   4.000727
    36  H    7.551718   8.736702   5.652739   3.346134   3.814775
    37  H    3.817324   5.438369   3.739936   3.007981   4.209101
    38  H    5.590305   7.156536   5.128482   3.627083   4.643221
    39  H    4.837367   6.862914   5.207559   4.211823   5.505259
    40  H   10.867170  11.274139   8.088081   6.012978   5.303133
                   16         17         18         19         20
    16  C    0.000000
    17  C    1.366252   0.000000
    18  C    5.016230   4.878601   0.000000
    19  C    3.751357   2.491840   4.394716   0.000000
    20  C    4.928934   4.131084   2.479639   2.466038   0.000000
    21  C    4.846856   3.749745   3.771815   1.465866   1.368799
    22  C    5.457596   5.448975   1.538461   5.142938   3.386142
    23  C    6.253545   5.074637   4.837501   2.607672   2.378369
    24  H    4.470873   5.612112   5.274983   7.277578   6.969666
    25  H    3.957709   4.794803   3.509962   5.993241   5.335339
    26  H    2.636555   3.961831   6.708065   6.374505   7.293749
    27  H    3.851995   5.209479   6.836752   7.452916   7.925730
    28  H    4.515593   5.426082   4.745339   6.792638   6.366886
    29  H    5.697784   6.720844   5.404922   8.102876   7.421933
    30  H    4.853476   6.134576   7.859677   8.371617   8.921770
    31  H    3.868350   4.986732   6.523112   6.994517   7.459629
    32  H    5.883465   7.074317   7.201203   8.906084   8.802428
    33  H    2.136784   1.082442   5.849447   2.667383   4.772978
    34  H    5.960742   5.692722   1.092958   4.820001   2.547713
    35  H    4.793709   4.895425   1.090419   4.854258   3.261353
    36  H    5.976167   5.214031   2.636812   3.437353   1.083675
    37  H    4.778234   4.953609   2.162313   5.104898   3.830376
    38  H    5.926970   5.717398   2.179034   5.045999   3.232215
    39  H    6.330142   6.440296   2.169896   6.197510   4.303022
    40  H    7.599365   6.294452   6.756932   3.856348   4.293919
                   21         22         23         24         25
    21  C    0.000000
    22  C    4.585536   0.000000
    23  C    1.469563   5.600693   0.000000
    24  H    7.700603   5.440513   9.130938   0.000000
    25  H    6.199110   3.663997   7.592354   1.799943   0.000000
    26  H    7.407775   6.843301   8.841617   3.666371   4.190708
    27  H    8.288401   6.995778   9.752772   2.438468   3.664878
    28  H    7.111484   4.074735   8.481506   3.057819   2.471523
    29  H    8.320368   4.874250   9.687924   2.472980   2.546755
    30  H    9.241228   7.554712  10.680398   4.037844   4.899207
    31  H    7.782580   6.089549   9.188201   3.953001   4.109426
    32  H    9.439242   6.599512  10.853200   3.574710   4.226513
    33  H    4.101754   6.425965   5.243029   6.557581   5.851122
    34  H    3.907994   2.184685   4.700200   6.162679   4.441130
    35  H    4.450479   2.174414   5.613580   4.390370   2.707130
    36  H    2.105938   3.477595   2.498558   7.628913   5.928179
    37  H    4.851865   1.092523   6.023294   4.767668   3.065751
    38  H    4.338624   1.094226   5.163465   6.445934   4.676299
    39  H    5.573129   1.095481   6.510371   5.568554   3.879656
    40  H    3.219732   7.470498   1.919494  10.886598   9.416981
                   26         27         28         29         30
    26  H    0.000000
    27  H    1.787804   0.000000
    28  H    4.119736   3.955197   0.000000
    29  H    4.908779   4.046218   1.790593   0.000000
    30  H    2.530978   2.464644   3.746925   4.200588   0.000000
    31  H    2.476970   3.056436   2.579029   3.746467   1.789531
    32  H    4.223162   3.575441   2.553117   2.390802   2.390060
    33  H    4.460702   5.876354   6.378652   7.714629   6.700254
    34  H    7.745656   7.829552   5.768862   6.298540   8.934369
    35  H    6.223319   6.121389   4.407408   4.796118   7.369636
    36  H    8.271087   8.797640   6.978187   7.923432   9.789589
    37  H    5.932286   6.136292   3.061288   4.091598   6.515164
    38  H    7.495931   7.835864   4.800718   5.780517   8.223105
    39  H    7.463537   7.387949   4.282919   4.728462   7.934877
    40  H   10.222047  11.290377  10.225476  11.512313  12.163477
                   31         32         33         34         35
    31  H    0.000000
    32  H    2.549439   0.000000
    33  H    5.636308   7.879262   0.000000
    34  H    7.614388   8.211485   6.599048   0.000000
    35  H    6.220066   6.700534   5.922145   1.782066   0.000000
    36  H    8.309637   9.475747   5.845847   2.267030   3.535840
    37  H    5.017240   5.608670   5.951435   3.077033   2.483885
    38  H    6.638674   7.332866   6.597122   2.537651   3.081199
    39  H    6.579653   6.678300   7.446477   2.515866   2.525428
    40  H   10.682469  12.530639   6.158882   6.582855   7.519481
                   36         37         38         39         40
    36  H    0.000000
    37  H    4.180722   0.000000
    38  H    3.177397   1.783516   0.000000
    39  H    4.221442   1.781299   1.780036   0.000000
    40  H    4.348180   7.859637   6.947036   8.381530   0.000000
 Stoichiometry    C15H17FN4O3
 Framework group  C1[X(C15H17FN4O3)]
 Deg. of freedom   114
 Full point group                 C1      NOp   1
 Largest Abelian subgroup         C1      NOp   1
 Largest concise Abelian subgroup C1      NOp   1
                         Standard orientation:                         
 ---------------------------------------------------------------------
 Center     Atomic      Atomic             Coordinates (Angstroms)
 Number     Number       Type             X           Y           Z
 ---------------------------------------------------------------------
      1          9           0       -1.922309   -2.983004   -0.166365
      2          8           0        3.032628   -2.374160    0.330560
      3          8           0        5.442213   -1.089149    0.388729
      4          8           0        5.468931    1.171265    0.077049
      5          7           0       -2.937631   -0.271405   -0.576717
      6          7           0       -5.286213    0.743772    0.641083
      7          7           0        1.410847    1.383963   -0.363876
      8          7           0       -0.742289    0.469053   -0.441849
      9          6           0       -3.375767    1.120043   -0.835258
     10          6           0       -4.074505   -1.176232   -0.278827
     11          6           0       -4.139589    1.649148    0.392343
     12          6           0       -4.839112   -0.634688    0.945331
     13          6           0       -1.613904   -0.564106   -0.396091
     14          6           0        0.572417    0.264238   -0.290492
     15          6           0        1.144280   -0.991692   -0.060635
     16          6           0       -1.088403   -1.879080   -0.189390
     17          6           0        0.253050   -2.072707   -0.017178
     18          6           0        0.830429    2.740057   -0.569158
     19          6           0        2.592304   -1.225859    0.124265
     20          6           0        2.749484    1.213636   -0.200543
     21          6           0        3.367892    0.014429    0.029859
     22          6           0        0.273833    3.323197    0.741190
     23          6           0        4.828156    0.115641    0.160249
     24          1           0       -4.057848    1.106341   -1.692176
     25          1           0       -2.494057    1.720085   -1.045901
     26          1           0       -3.706416   -2.179101   -0.103263
     27          1           0       -4.752496   -1.164719   -1.139114
     28          1           0       -3.432645    1.705714    1.240422
     29          1           0       -4.521511    2.653193    0.180762
     30          1           0       -5.719085   -1.260523    1.126056
     31          1           0       -4.171594   -0.695126    1.824640
     32          1           0       -5.912171    1.109815    1.363970
     33          1           0        0.658816   -3.063301    0.143316
     34          1           0        1.629319    3.368077   -0.971554
     35          1           0        0.036798    2.643775   -1.310706
     36          1           0        3.370048    2.099767   -0.263967
     37          1           0       -0.536005    2.686962    1.105845
     38          1           0        1.059032    3.380154    1.501157
     39          1           0       -0.117138    4.330776    0.562291
     40          1           0        6.421167   -0.912335    0.460314
 ---------------------------------------------------------------------
 Rotational constants (GHZ):      0.5338047      0.1438933      0.1173759
 Standard basis: LANL2DZ (5D, 7F)
 There are   241 symmetry adapted cartesian basis functions of A   symmetry.
 There are   241 symmetry adapted basis functions of A   symmetry.
   241 basis functions,   643 primitive gaussians,   241 cartesian basis functions
    84 alpha electrons       84 beta electrons
       nuclear repulsion energy      1966.2713516248 Hartrees.
 NAtoms=   40 NActive=   40 NUniq=   40 SFac= 1.00D+00 NAtFMM=   60 NAOKFM=F Big=F
 Integral buffers will be    131072 words long.
 Raffenetti 2 integral format.
 Two-electron integral symmetry is turned on.
 One-electron integrals computed using PRISM.
 PrsmSu:  requested number of processors reduced to:   8 ShMem   1 Linda.
   1 Symmetry operations used in ECPInt.
 ECPInt:  NShTT=   11175 NPrTT=   86186 LenC2=   10119 LenP2D=   43802.
 LDataN:  DoStor=T MaxTD1= 2 Len=   12
 Number of processors reduced to   9 by ecpmxn.
 NBasis=   241 RedAO= T EigKep=  4.90D-04  NBF=   241
 NBsUse=   241 1.00D-06 EigRej= -1.00D+00 NBFU=   241
 ExpMin= 1.15D-01 ExpMax= 1.00D+04 ExpMxC= 3.50D+02 IAcc=3 IRadAn=         5 AccDes= 0.00D+00
 Harris functional with IExCor= 1009 and IRadAn=       5 diagonalized for initial guess.
 HarFok:  IExCor= 1009 AccDes= 0.00D+00 IRadAn=         5 IDoV= 1 UseB2=F ITyADJ=14
 ICtDFT=  3500011 ScaDFX=  1.000000  1.000000  1.000000  1.000000
 FoFCou: FMM=F IPFlag=           0 FMFlag=      100000 FMFlg1=           0
         NFxFlg=           0 DoJE=T BraDBF=F KetDBF=T FulRan=T
         wScrn=  0.000000 ICntrl=     500 IOpCl=  0 I1Cent=   200000004 NGrid=           0
         NMat0=    1 NMatS0=      1 NMatT0=    0 NMatD0=    1 NMtDS0=    0 NMtDT0=    0
 Petite list used in FoFCou.
 Requested convergence on RMS density matrix=1.00D-08 within 128 cycles.
 Requested convergence on MAX density matrix=1.00D-06.
 Requested convergence on             energy=1.00D-06.
 No special actions if energy rises.
 Integral accuracy reduced to 1.0D-05 until final iterations.
 EnCoef did     1 forward-backward iterations
 Initial convergence to 1.0D-05 achieved.  Increase integral accuracy.
 SCF Done:  E(RM06) =  -1125.51631490     A.U. after   18 cycles
            NFock= 18  Conv=0.60D-08     -V/T= 2.0048

 **********************************************************************

            Population analysis using the SCF density.

 **********************************************************************

 Orbital symmetries:
       Occupied  (A) (A) (A) (A) (A) (A) (A) (A) (A) (A) (A) (A)
                 (A) (A) (A) (A) (A) (A) (A) (A) (A) (A) (A) (A)
                 (A) (A) (A) (A) (A) (A) (A) (A) (A) (A) (A) (A)
                 (A) (A) (A) (A) (A) (A) (A) (A) (A) (A) (A) (A)
                 (A) (A) (A) (A) (A) (A) (A) (A) (A) (A) (A) (A)
                 (A) (A) (A) (A) (A) (A) (A) (A) (A) (A) (A) (A)
                 (A) (A) (A) (A) (A) (A) (A) (A) (A) (A) (A) (A)
       Virtual   (A) (A) (A) (A) (A) (A) (A) (A) (A) (A) (A) (A)
                 (A) (A) (A) (A) (A) (A) (A) (A) (A) (A) (A) (A)
                 (A) (A) (A) (A) (A) (A) (A) (A) (A) (A) (A) (A)
                 (A) (A) (A) (A) (A) (A) (A) (A) (A) (A) (A) (A)
                 (A) (A) (A) (A) (A) (A) (A) (A) (A) (A) (A) (A)
                 (A) (A) (A) (A) (A) (A) (A) (A) (A) (A) (A) (A)
                 (A) (A) (A) (A) (A) (A) (A) (A) (A) (A) (A) (A)
                 (A) (A) (A) (A) (A) (A) (A) (A) (A) (A) (A) (A)
                 (A) (A) (A) (A) (A) (A) (A) (A) (A) (A) (A) (A)
                 (A) (A) (A) (A) (A) (A) (A) (A) (A) (A) (A) (A)
                 (A) (A) (A) (A) (A) (A) (A) (A) (A) (A) (A) (A)
                 (A) (A) (A) (A) (A) (A) (A) (A) (A) (A) (A) (A)
                 (A) (A) (A) (A) (A) (A) (A) (A) (A) (A) (A) (A)
                 (A)
 The electronic state is 1-A.
 Alpha  occ. eigenvalues --  -24.81429 -19.26051 -19.21571 -19.18768 -14.48145
 Alpha  occ. eigenvalues --  -14.44593 -14.41984 -14.40098 -10.40083 -10.37274
 Alpha  occ. eigenvalues --  -10.36155 -10.36050 -10.34270 -10.33379 -10.31470
 Alpha  occ. eigenvalues --  -10.29363 -10.29200 -10.29054 -10.28966 -10.28802
 Alpha  occ. eigenvalues --  -10.27559 -10.27359 -10.25687  -1.26961  -1.13293
 Alpha  occ. eigenvalues --   -1.05091  -1.04563  -1.04002  -1.01198  -0.96299
 Alpha  occ. eigenvalues --   -0.92166  -0.86023  -0.83351  -0.81516  -0.79470
 Alpha  occ. eigenvalues --   -0.78257  -0.74019  -0.71047  -0.68795  -0.67433
 Alpha  occ. eigenvalues --   -0.66978  -0.64169  -0.62938  -0.61777  -0.58605
 Alpha  occ. eigenvalues --   -0.57369  -0.56404  -0.54686  -0.53558  -0.51010
 Alpha  occ. eigenvalues --   -0.50535  -0.50271  -0.49215  -0.49048  -0.48329
 Alpha  occ. eigenvalues --   -0.48139  -0.47970  -0.47090  -0.46479  -0.45912
 Alpha  occ. eigenvalues --   -0.45029  -0.44799  -0.43785  -0.42975  -0.42547
 Alpha  occ. eigenvalues --   -0.41579  -0.40994  -0.40210  -0.39955  -0.39216
 Alpha  occ. eigenvalues --   -0.38448  -0.38244  -0.37940  -0.37447  -0.36748
 Alpha  occ. eigenvalues --   -0.33250  -0.32473  -0.31011  -0.29930  -0.29157
 Alpha  occ. eigenvalues --   -0.25649  -0.24582  -0.24470  -0.22868
 Alpha virt. eigenvalues --   -0.06049  -0.04374  -0.00718   0.02759   0.08063
 Alpha virt. eigenvalues --    0.08967   0.09371   0.09876   0.10951   0.10987
 Alpha virt. eigenvalues --    0.11420   0.12460   0.13378   0.13586   0.14275
 Alpha virt. eigenvalues --    0.14673   0.15175   0.15522   0.16380   0.17292
 Alpha virt. eigenvalues --    0.17609   0.18034   0.18664   0.19488   0.19763
 Alpha virt. eigenvalues --    0.20123   0.20409   0.21326   0.21478   0.21908
 Alpha virt. eigenvalues --    0.22476   0.22586   0.23016   0.23801   0.24416
 Alpha virt. eigenvalues --    0.25242   0.25776   0.26177   0.26389   0.27237
 Alpha virt. eigenvalues --    0.27676   0.29005   0.29564   0.29912   0.29991
 Alpha virt. eigenvalues --    0.30613   0.30828   0.31651   0.32306   0.33334
 Alpha virt. eigenvalues --    0.33689   0.34288   0.34889   0.35253   0.35837
 Alpha virt. eigenvalues --    0.36285   0.36979   0.37711   0.38663   0.39229
 Alpha virt. eigenvalues --    0.39901   0.40115   0.40299   0.40786   0.42373
 Alpha virt. eigenvalues --    0.43423   0.43761   0.43888   0.44702   0.45112
 Alpha virt. eigenvalues --    0.45947   0.46884   0.48184   0.48974   0.49138
 Alpha virt. eigenvalues --    0.49885   0.50085   0.50888   0.52934   0.53500
 Alpha virt. eigenvalues --    0.54049   0.54891   0.55608   0.57365   0.58226
 Alpha virt. eigenvalues --    0.58812   0.59890   0.61754   0.64509   0.66304
 Alpha virt. eigenvalues --    0.66974   0.67504   0.69790   0.69836   0.70192
 Alpha virt. eigenvalues --    0.72449   0.73328   0.75173   0.75458   0.77333
 Alpha virt. eigenvalues --    0.79466   0.81096   0.84354   0.85169   0.86541
 Alpha virt. eigenvalues --    0.88195   0.88610   0.89628   0.89786   0.91598
 Alpha virt. eigenvalues --    0.92397   0.94571   0.96330   0.96484   0.99829
 Alpha virt. eigenvalues --    1.00521   1.02573   1.03019   1.03535   1.04437
 Alpha virt. eigenvalues --    1.06063   1.06668   1.08181   1.09205   1.10256
 Alpha virt. eigenvalues --    1.10698   1.11559   1.13102   1.13493   1.14510
 Alpha virt. eigenvalues --    1.14818   1.16252   1.18006   1.19467   1.21834
 Alpha virt. eigenvalues --    1.24592   1.26574   1.27804   1.32624   1.33994
 Alpha virt. eigenvalues --    1.37988   1.39545   1.41920   1.47449   1.48882
 Alpha virt. eigenvalues --    1.51818   1.54145   1.54739   1.64950   1.66790
 Alpha virt. eigenvalues --    1.72496   1.84711   1.87365   1.87890   1.97876
 Alpha virt. eigenvalues --    2.01005   2.19536
          Condensed to atoms (all electrons):
               1          2          3          4          5          6
     1  F    9.087536   0.000003   0.000000   0.000000   0.006944  -0.000003
     2  O    0.000003   7.789278  -0.006351   0.000006   0.000000   0.000000
     3  O    0.000000  -0.006351   8.084441  -0.083894   0.000000   0.000000
     4  O    0.000000   0.000006  -0.083894   7.886797   0.000000   0.000000
     5  N    0.006944   0.000000   0.000000   0.000000   6.930942  -0.011762
     6  N   -0.000003   0.000000   0.000000   0.000000  -0.011762   6.773509
     7  N    0.000002   0.000134  -0.000008   0.000673   0.000511   0.000000
     8  N    0.002527  -0.000124   0.000000   0.000000  -0.070812   0.000310
     9  C   -0.000183   0.000000   0.000000   0.000000   0.289628  -0.067861
    10  C   -0.013732   0.000000   0.000000   0.000000   0.264590  -0.067757
    11  C    0.000025   0.000000   0.000000   0.000000  -0.066336   0.311032
    12  C   -0.000113   0.000000   0.000000   0.000000  -0.072663   0.310040
    13  C   -0.044562  -0.000091   0.000000   0.000000   0.159999  -0.002040
    14  C    0.000324  -0.000718  -0.000106  -0.000055   0.001812   0.000048
    15  C   -0.001272  -0.089794  -0.001132  -0.000434  -0.003779  -0.000003
    16  C    0.260947  -0.000559  -0.000001   0.000000  -0.052639  -0.000253
    17  C   -0.047697  -0.008097   0.000024   0.000006   0.002999  -0.000010
    18  C   -0.000001   0.000005   0.000002   0.000242   0.000138   0.000002
    19  C   -0.000142   0.669232   0.002884  -0.004157  -0.000062   0.000000
    20  C    0.000000   0.001467  -0.005980   0.006180   0.000061   0.000000
    21  C   -0.000008  -0.071465  -0.030277  -0.062905  -0.000022   0.000000
    22  C    0.000000  -0.000001   0.000000   0.000000   0.000047  -0.000001
    23  C    0.000000  -0.007739   0.249106   0.589003   0.000000   0.000000
    24  H   -0.000003   0.000000   0.000000   0.000000  -0.053333   0.001773
    25  H   -0.000002   0.000000   0.000000   0.000000  -0.032707   0.003217
    26  H    0.007293   0.000000   0.000000   0.000000  -0.030631   0.002905
    27  H   -0.000042   0.000000   0.000000   0.000000  -0.051612   0.003078
    28  H   -0.000001   0.000000   0.000000   0.000000  -0.005378  -0.068892
    29  H    0.000000   0.000000   0.000000   0.000000   0.004992  -0.035903
    30  H   -0.000001   0.000000   0.000000   0.000000   0.004661  -0.036221
    31  H    0.000063   0.000000   0.000000   0.000000  -0.001823  -0.070120
    32  H    0.000000   0.000000   0.000000   0.000000  -0.000392   0.319853
    33  H    0.000850   0.010836   0.000000   0.000000  -0.000060   0.000000
    34  H    0.000000   0.000000   0.000000  -0.000004   0.000000   0.000000
    35  H    0.000000   0.000000   0.000000   0.000000  -0.000054   0.000000
    36  H    0.000000  -0.000055   0.000357   0.012570   0.000000   0.000000
    37  H    0.000000   0.000000   0.000000   0.000000  -0.000066  -0.000003
    38  H    0.000000   0.000000   0.000000   0.000001   0.000000   0.000000
    39  H    0.000000   0.000000   0.000000   0.000000   0.000000   0.000000
    40  H    0.000000   0.000370   0.245342   0.003289   0.000000   0.000000
               7          8          9         10         11         12
     1  F    0.000002   0.002527  -0.000183  -0.013732   0.000025  -0.000113
     2  O    0.000134  -0.000124   0.000000   0.000000   0.000000   0.000000
     3  O   -0.000008   0.000000   0.000000   0.000000   0.000000   0.000000
     4  O    0.000673   0.000000   0.000000   0.000000   0.000000   0.000000
     5  N    0.000511  -0.070812   0.289628   0.264590  -0.066336  -0.072663
     6  N    0.000000   0.000310  -0.067861  -0.067757   0.311032   0.310040
     7  N    6.753156  -0.074086   0.000299   0.000000   0.000005   0.000001
     8  N   -0.074086   6.425444  -0.005847  -0.000167   0.000542  -0.000149
     9  C    0.000299  -0.005847   5.357941  -0.040437   0.265190  -0.003368
    10  C    0.000000  -0.000167  -0.040437   5.393015   0.000227   0.253228
    11  C    0.000005   0.000542   0.265190   0.000227   5.361053  -0.087671
    12  C    0.000001  -0.000149  -0.003368   0.253228  -0.087671   5.377587
    13  C   -0.008580   0.506850  -0.084160  -0.047010  -0.017667  -0.013943
    14  C    0.171164   0.447851  -0.001967  -0.000136   0.000629  -0.000127
    15  C   -0.058859  -0.036862  -0.000600  -0.000105  -0.000118  -0.000039
    16  C   -0.001331  -0.040509   0.000450  -0.001407  -0.001227   0.001174
    17  C    0.012622  -0.031008   0.000329  -0.001623   0.000021   0.000271
    18  C    0.238692   0.001607   0.000400  -0.000007   0.000048  -0.000001
    19  C   -0.006164   0.001443  -0.000016   0.000001  -0.000001  -0.000001
    20  C    0.398141  -0.008609   0.000035   0.000000   0.000004   0.000000
    21  C   -0.065522  -0.002571   0.000001   0.000000  -0.000001   0.000000
    22  C   -0.060093  -0.005920   0.000182   0.000002   0.000095   0.000002
    23  C    0.007540   0.000030   0.000000   0.000000   0.000000   0.000000
    24  H   -0.000001  -0.000584   0.351698  -0.008056  -0.041873  -0.003215
    25  H   -0.000092   0.016781   0.352355   0.005532  -0.026323  -0.000528
    26  H    0.000000   0.000018   0.005454   0.356686  -0.000281  -0.027283
    27  H    0.000000  -0.000009  -0.005535   0.344012  -0.003656  -0.046183
    28  H    0.000002  -0.001967  -0.054376   0.000008   0.353417  -0.009361
    29  H    0.000000   0.000100  -0.019609  -0.001390   0.359454   0.007840
    30  H    0.000000  -0.000002  -0.001256  -0.019627   0.007840   0.360396
    31  H    0.000000  -0.000224  -0.000069  -0.055035  -0.009295   0.352711
    32  H    0.000000  -0.000003   0.005454   0.005242  -0.037169  -0.038729
    33  H   -0.000097  -0.000201  -0.000001   0.000016   0.000000  -0.000002
    34  H   -0.041012  -0.000390  -0.000005   0.000000   0.000001   0.000000
    35  H   -0.040260   0.010875  -0.000259   0.000002  -0.000020   0.000000
    36  H   -0.037940  -0.000035   0.000000   0.000000   0.000000   0.000000
    37  H   -0.004007   0.001837  -0.000200   0.000005   0.000203  -0.000006
    38  H   -0.003055   0.000189  -0.000004   0.000000  -0.000002   0.000000
    39  H    0.004351  -0.000106  -0.000018   0.000000   0.000021   0.000000
    40  H    0.000002   0.000000   0.000000   0.000000   0.000000   0.000000
              13         14         15         16         17         18
     1  F   -0.044562   0.000324  -0.001272   0.260947  -0.047697  -0.000001
     2  O   -0.000091  -0.000718  -0.089794  -0.000559  -0.008097   0.000005
     3  O    0.000000  -0.000106  -0.001132  -0.000001   0.000024   0.000002
     4  O    0.000000  -0.000055  -0.000434   0.000000   0.000006   0.000242
     5  N    0.159999   0.001812  -0.003779  -0.052639   0.002999   0.000138
     6  N   -0.002040   0.000048  -0.000003  -0.000253  -0.000010   0.000002
     7  N   -0.008580   0.171164  -0.058859  -0.001331   0.012622   0.238692
     8  N    0.506850   0.447851  -0.036862  -0.040509  -0.031008   0.001607
     9  C   -0.084160  -0.001967  -0.000600   0.000450   0.000329   0.000400
    10  C   -0.047010  -0.000136  -0.000105  -0.001407  -0.001623  -0.000007
    11  C   -0.017667   0.000629  -0.000118  -0.001227   0.000021   0.000048
    12  C   -0.013943  -0.000127  -0.000039   0.001174   0.000271  -0.000001
    13  C    5.489394  -0.223952  -0.074572   0.305121  -0.093321  -0.004212
    14  C   -0.223952   5.763473   0.101712  -0.054810  -0.052801  -0.036454
    15  C   -0.074572   0.101712   5.671167  -0.022175   0.339469   0.004601
    16  C    0.305121  -0.054810  -0.022175   5.012076   0.423044  -0.000055
    17  C   -0.093321  -0.052801   0.339469   0.423044   5.604729   0.000161
    18  C   -0.004212  -0.036454   0.004601  -0.000055   0.000161   5.222075
    19  C   -0.004176  -0.007844   0.139717  -0.024918  -0.068627   0.000752
    20  C   -0.001540  -0.131253   0.004209  -0.000291   0.004273  -0.043926
    21  C   -0.001141   0.012612  -0.154849  -0.002233  -0.030161   0.003286
    22  C    0.001790  -0.021959  -0.002399  -0.000133   0.000040   0.277742
    23  C   -0.000013   0.006245  -0.032844  -0.000073  -0.001035   0.000470
    24  H    0.013992  -0.000141   0.000021   0.000644   0.000013  -0.000029
    25  H   -0.012437   0.002261   0.000040   0.000160   0.000034  -0.000081
    26  H   -0.007039   0.000056   0.000048   0.002708   0.000254   0.000000
    27  H    0.009815   0.000016  -0.000003  -0.000400   0.000039   0.000000
    28  H    0.009767  -0.000701   0.000049   0.000770   0.000018  -0.000112
    29  H   -0.000330   0.000030  -0.000001  -0.000021   0.000000   0.000003
    30  H   -0.000215   0.000000   0.000000   0.000042   0.000000   0.000000
    31  H    0.004041  -0.000024   0.000019   0.000738   0.000084   0.000000
    32  H    0.000093   0.000000   0.000000   0.000001   0.000000   0.000000
    33  H    0.001549   0.003091  -0.020687  -0.033008   0.311115   0.000005
    34  H   -0.000106   0.005377   0.000203   0.000003   0.000018   0.362943
    35  H    0.002125  -0.006674   0.000187   0.000057  -0.000075   0.375310
    36  H   -0.000014  -0.003330  -0.000503   0.000002   0.000099  -0.001434
    37  H   -0.000113   0.006780   0.000282   0.000014   0.000035  -0.037855
    38  H    0.000034   0.000239  -0.000031   0.000001  -0.000005  -0.036377
    39  H   -0.000011   0.000101   0.000004   0.000000   0.000000  -0.027998
    40  H    0.000000  -0.000001   0.000072   0.000000  -0.000001   0.000000
              19         20         21         22         23         24
     1  F   -0.000142   0.000000  -0.000008   0.000000   0.000000  -0.000003
     2  O    0.669232   0.001467  -0.071465  -0.000001  -0.007739   0.000000
     3  O    0.002884  -0.005980  -0.030277   0.000000   0.249106   0.000000
     4  O   -0.004157   0.006180  -0.062905   0.000000   0.589003   0.000000
     5  N   -0.000062   0.000061  -0.000022   0.000047   0.000000  -0.053333
     6  N    0.000000   0.000000   0.000000  -0.000001   0.000000   0.001773
     7  N   -0.006164   0.398141  -0.065522  -0.060093   0.007540  -0.000001
     8  N    0.001443  -0.008609  -0.002571  -0.005920   0.000030  -0.000584
     9  C   -0.000016   0.000035   0.000001   0.000182   0.000000   0.351698
    10  C    0.000001   0.000000   0.000000   0.000002   0.000000  -0.008056
    11  C   -0.000001   0.000004  -0.000001   0.000095   0.000000  -0.041873
    12  C   -0.000001   0.000000   0.000000   0.000002   0.000000  -0.003215
    13  C   -0.004176  -0.001540  -0.001141   0.001790  -0.000013   0.013992
    14  C   -0.007844  -0.131253   0.012612  -0.021959   0.006245  -0.000141
    15  C    0.139717   0.004209  -0.154849  -0.002399  -0.032844   0.000021
    16  C   -0.024918  -0.000291  -0.002233  -0.000133  -0.000073   0.000644
    17  C   -0.068627   0.004273  -0.030161   0.000040  -0.001035   0.000013
    18  C    0.000752  -0.043926   0.003286   0.277742   0.000470  -0.000029
    19  C    5.251970  -0.096268   0.021392   0.000087  -0.045758   0.000000
    20  C   -0.096268   5.560822   0.288180  -0.004171  -0.008038   0.000000
    21  C    0.021392   0.288180   5.936848  -0.000272   0.067137   0.000000
    22  C    0.000087  -0.004171  -0.000272   5.416458  -0.000040   0.000009
    23  C   -0.045758  -0.008038   0.067137  -0.000040   5.011386   0.000000
    24  H    0.000000   0.000000   0.000000   0.000009   0.000000   0.514705
    25  H    0.000001   0.000003   0.000001   0.000142   0.000000  -0.017069
    26  H    0.000000   0.000000   0.000000   0.000000   0.000000   0.000122
    27  H    0.000000   0.000000   0.000000   0.000000   0.000000   0.005958
    28  H    0.000001  -0.000002   0.000000   0.000155   0.000000   0.004575
    29  H    0.000000   0.000000   0.000000   0.000008   0.000000  -0.003961
    30  H    0.000000   0.000000   0.000000   0.000000   0.000000   0.000034
    31  H    0.000000   0.000000   0.000000   0.000001   0.000000   0.000247
    32  H    0.000000   0.000000   0.000000   0.000000   0.000000   0.000112
    33  H    0.004832  -0.000116   0.002219   0.000000  -0.000012   0.000000
    34  H   -0.000063   0.002400   0.000073  -0.041768   0.000038   0.000000
    35  H   -0.000020   0.001506  -0.000131  -0.036098   0.000007   0.000007
    36  H    0.004245   0.315419  -0.007260  -0.000062  -0.009437   0.000000
    37  H    0.000009  -0.000260  -0.000013   0.373605   0.000000   0.000004
    38  H    0.000000   0.003441  -0.000046   0.372786   0.000017   0.000000
    39  H    0.000000  -0.000019   0.000002   0.369592   0.000000   0.000000
    40  H    0.001808  -0.000445   0.005279   0.000000  -0.029128   0.000000
              25         26         27         28         29         30
     1  F   -0.000002   0.007293  -0.000042  -0.000001   0.000000  -0.000001
     2  O    0.000000   0.000000   0.000000   0.000000   0.000000   0.000000
     3  O    0.000000   0.000000   0.000000   0.000000   0.000000   0.000000
     4  O    0.000000   0.000000   0.000000   0.000000   0.000000   0.000000
     5  N   -0.032707  -0.030631  -0.051612  -0.005378   0.004992   0.004661
     6  N    0.003217   0.002905   0.003078  -0.068892  -0.035903  -0.036221
     7  N   -0.000092   0.000000   0.000000   0.000002   0.000000   0.000000
     8  N    0.016781   0.000018  -0.000009  -0.001967   0.000100  -0.000002
     9  C    0.352355   0.005454  -0.005535  -0.054376  -0.019609  -0.001256
    10  C    0.005532   0.356686   0.344012   0.000008  -0.001390  -0.019627
    11  C   -0.026323  -0.000281  -0.003656   0.353417   0.359454   0.007840
    12  C   -0.000528  -0.027283  -0.046183  -0.009361   0.007840   0.360396
    13  C   -0.012437  -0.007039   0.009815   0.009767  -0.000330  -0.000215
    14  C    0.002261   0.000056   0.000016  -0.000701   0.000030   0.000000
    15  C    0.000040   0.000048  -0.000003   0.000049  -0.000001   0.000000
    16  C    0.000160   0.002708  -0.000400   0.000770  -0.000021   0.000042
    17  C    0.000034   0.000254   0.000039   0.000018   0.000000   0.000000
    18  C   -0.000081   0.000000   0.000000  -0.000112   0.000003   0.000000
    19  C    0.000001   0.000000   0.000000   0.000001   0.000000   0.000000
    20  C    0.000003   0.000000   0.000000  -0.000002   0.000000   0.000000
    21  C    0.000001   0.000000   0.000000   0.000000   0.000000   0.000000
    22  C    0.000142   0.000000   0.000000   0.000155   0.000008   0.000000
    23  C    0.000000   0.000000   0.000000   0.000000   0.000000   0.000000
    24  H   -0.017069   0.000122   0.005958   0.004575  -0.003961   0.000034
    25  H    0.462586  -0.000050   0.000202   0.001176   0.000183  -0.000002
    26  H   -0.000050   0.439546  -0.015133   0.000096  -0.000001  -0.000142
    27  H    0.000202  -0.015133   0.525409   0.000248   0.000058  -0.003394
    28  H    0.001176   0.000096   0.000248   0.601358  -0.032717  -0.000195
    29  H    0.000183  -0.000001   0.000058  -0.032717   0.510615  -0.000064
    30  H   -0.000002  -0.000142  -0.003394  -0.000195  -0.000064   0.504275
    31  H    0.000120   0.001126   0.004839   0.011149  -0.000184  -0.031672
    32  H   -0.000096  -0.000093   0.000027   0.000364  -0.004961  -0.004638
    33  H    0.000000   0.000002   0.000000   0.000000   0.000000   0.000000
    34  H    0.000007   0.000000   0.000000   0.000000   0.000000   0.000000
    35  H    0.001059   0.000000   0.000000   0.000009  -0.000001   0.000000
    36  H    0.000000   0.000000   0.000000   0.000000   0.000000   0.000000
    37  H    0.000037   0.000000   0.000000   0.000537  -0.000012   0.000000
    38  H    0.000007   0.000000   0.000000   0.000004   0.000000   0.000000
    39  H   -0.000011   0.000000   0.000000  -0.000003  -0.000001   0.000000
    40  H    0.000000   0.000000   0.000000   0.000000   0.000000   0.000000
              31         32         33         34         35         36
     1  F    0.000063   0.000000   0.000850   0.000000   0.000000   0.000000
     2  O    0.000000   0.000000   0.010836   0.000000   0.000000  -0.000055
     3  O    0.000000   0.000000   0.000000   0.000000   0.000000   0.000357
     4  O    0.000000   0.000000   0.000000  -0.000004   0.000000   0.012570
     5  N   -0.001823  -0.000392  -0.000060   0.000000  -0.000054   0.000000
     6  N   -0.070120   0.319853   0.000000   0.000000   0.000000   0.000000
     7  N    0.000000   0.000000  -0.000097  -0.041012  -0.040260  -0.037940
     8  N   -0.000224  -0.000003  -0.000201  -0.000390   0.010875  -0.000035
     9  C   -0.000069   0.005454  -0.000001  -0.000005  -0.000259   0.000000
    10  C   -0.055035   0.005242   0.000016   0.000000   0.000002   0.000000
    11  C   -0.009295  -0.037169   0.000000   0.000001  -0.000020   0.000000
    12  C    0.352711  -0.038729  -0.000002   0.000000   0.000000   0.000000
    13  C    0.004041   0.000093   0.001549  -0.000106   0.002125  -0.000014
    14  C   -0.000024   0.000000   0.003091   0.005377  -0.006674  -0.003330
    15  C    0.000019   0.000000  -0.020687   0.000203   0.000187  -0.000503
    16  C    0.000738   0.000001  -0.033008   0.000003   0.000057   0.000002
    17  C    0.000084   0.000000   0.311115   0.000018  -0.000075   0.000099
    18  C    0.000000   0.000000   0.000005   0.362943   0.375310  -0.001434
    19  C    0.000000   0.000000   0.004832  -0.000063  -0.000020   0.004245
    20  C    0.000000   0.000000  -0.000116   0.002400   0.001506   0.315419
    21  C    0.000000   0.000000   0.002219   0.000073  -0.000131  -0.007260
    22  C    0.000001   0.000000   0.000000  -0.041768  -0.036098  -0.000062
    23  C    0.000000   0.000000  -0.000012   0.000038   0.000007  -0.009437
    24  H    0.000247   0.000112   0.000000   0.000000   0.000007   0.000000
    25  H    0.000120  -0.000096   0.000000   0.000007   0.001059   0.000000
    26  H    0.001126  -0.000093   0.000002   0.000000   0.000000   0.000000
    27  H    0.004839   0.000027   0.000000   0.000000   0.000000   0.000000
    28  H    0.011149   0.000364   0.000000   0.000000   0.000009   0.000000
    29  H   -0.000184  -0.004961   0.000000   0.000000  -0.000001   0.000000
    30  H   -0.031672  -0.004638   0.000000   0.000000   0.000000   0.000000
    31  H    0.604260   0.000240   0.000000   0.000000   0.000000   0.000000
    32  H    0.000240   0.462046   0.000000   0.000000   0.000000   0.000000
    33  H    0.000000   0.000000   0.418711   0.000000   0.000000   0.000000
    34  H    0.000000   0.000000   0.000000   0.526825  -0.027568   0.001790
    35  H    0.000000   0.000000   0.000000  -0.027568   0.482562   0.000179
    36  H    0.000000   0.000000   0.000000   0.001790   0.000179   0.443821
    37  H    0.000002   0.000000   0.000000   0.003076  -0.003564   0.000000
    38  H    0.000000   0.000000   0.000000  -0.003488   0.003093  -0.000098
    39  H    0.000000   0.000000   0.000000  -0.001112  -0.001226   0.000003
    40  H    0.000000   0.000000   0.000000   0.000000   0.000000   0.000001
              37         38         39         40
     1  F    0.000000   0.000000   0.000000   0.000000
     2  O    0.000000   0.000000   0.000000   0.000370
     3  O    0.000000   0.000000   0.000000   0.245342
     4  O    0.000000   0.000001   0.000000   0.003289
     5  N   -0.000066   0.000000   0.000000   0.000000
     6  N   -0.000003   0.000000   0.000000   0.000000
     7  N   -0.004007  -0.003055   0.004351   0.000002
     8  N    0.001837   0.000189  -0.000106   0.000000
     9  C   -0.000200  -0.000004  -0.000018   0.000000
    10  C    0.000005   0.000000   0.000000   0.000000
    11  C    0.000203  -0.000002   0.000021   0.000000
    12  C   -0.000006   0.000000   0.000000   0.000000
    13  C   -0.000113   0.000034  -0.000011   0.000000
    14  C    0.006780   0.000239   0.000101  -0.000001
    15  C    0.000282  -0.000031   0.000004   0.000072
    16  C    0.000014   0.000001   0.000000   0.000000
    17  C    0.000035  -0.000005   0.000000  -0.000001
    18  C   -0.037855  -0.036377  -0.027998   0.000000
    19  C    0.000009   0.000000   0.000000   0.001808
    20  C   -0.000260   0.003441  -0.000019  -0.000445
    21  C   -0.000013  -0.000046   0.000002   0.005279
    22  C    0.373605   0.372786   0.369592   0.000000
    23  C    0.000000   0.000017   0.000000  -0.029128
    24  H    0.000004   0.000000   0.000000   0.000000
    25  H    0.000037   0.000007  -0.000011   0.000000
    26  H    0.000000   0.000000   0.000000   0.000000
    27  H    0.000000   0.000000   0.000000   0.000000
    28  H    0.000537   0.000004  -0.000003   0.000000
    29  H   -0.000012   0.000000  -0.000001   0.000000
    30  H    0.000000   0.000000   0.000000   0.000000
    31  H    0.000002   0.000000   0.000000   0.000000
    32  H    0.000000   0.000000   0.000000   0.000000
    33  H    0.000000   0.000000   0.000000   0.000000
    34  H    0.003076  -0.003488  -0.001112   0.000000
    35  H   -0.003564   0.003093  -0.001226   0.000000
    36  H    0.000000  -0.000098   0.000003   0.000001
    37  H    0.458870  -0.019878  -0.019201   0.000000
    38  H   -0.019878   0.483366  -0.019758   0.000000
    39  H   -0.019201  -0.019758   0.478226   0.000000
    40  H    0.000000   0.000000   0.000000   0.369130
 Mulliken charges:
               1
     1  F   -0.258754
     2  O   -0.286335
     3  O   -0.454407
     4  O   -0.347315
     5  N   -0.213189
     6  N   -0.364938
     7  N   -0.186187
     8  N   -0.136219
     9  C   -0.343649
    10  C   -0.366078
    11  C   -0.368167
    12  C   -0.359869
    13  C    0.136677
    14  C    0.019234
    15  C    0.239261
    16  C    0.228092
    17  C   -0.365233
    18  C   -0.299939
    19  C    0.159843
    20  C   -0.285223
    21  C    0.091849
    22  C   -0.639827
    23  C    0.203138
    24  H    0.234350
    25  H    0.243494
    26  H    0.264340
    27  H    0.232266
    28  H    0.190003
    29  H    0.215875
    30  H    0.220179
    31  H    0.188806
    32  H    0.292647
    33  H    0.300958
    34  H    0.212765
    35  H    0.238973
    36  H    0.281684
    37  H    0.239886
    38  H    0.219566
    39  H    0.217164
    40  H    0.404283
 Sum of Mulliken charges =   0.00000
 Mulliken charges with hydrogens summed into heavy atoms:
               1
     1  F   -0.258754
     2  O   -0.286335
     3  O   -0.050124
     4  O   -0.347315
     5  N   -0.213189
     6  N   -0.072291
     7  N   -0.186187
     8  N   -0.136219
     9  C    0.134194
    10  C    0.130528
    11  C    0.037711
    12  C    0.049115
    13  C    0.136677
    14  C    0.019234
    15  C    0.239261
    16  C    0.228092
    17  C   -0.064276
    18  C    0.151799
    19  C    0.159843
    20  C   -0.003539
    21  C    0.091849
    22  C    0.036788
    23  C    0.203138
 Electronic spatial extent (au):  <R**2>=           8722.6035
 Charge=              0.0000 electrons
 Dipole moment (field-independent basis, Debye):
    X=             -6.3220    Y=              5.1960    Z=              0.4588  Tot=              8.1961
 Quadrupole moment (field-independent basis, Debye-Ang):
   XX=           -136.8237   YY=           -135.0473   ZZ=           -130.2662
   XY=              2.6647   XZ=             -7.7552   YZ=              0.3635
 Traceless Quadrupole moment (field-independent basis, Debye-Ang):
   XX=             -2.7780   YY=             -1.0015   ZZ=              3.7795
   XY=              2.6647   XZ=             -7.7552   YZ=              0.3635
 Octapole moment (field-independent basis, Debye-Ang**2):
  XXX=            -69.8057  YYY=             54.9184  ZZZ=              4.2817  XYY=            -47.6885
  XXY=            -26.6127  XXZ=             47.3985  XZZ=            -10.8657  YZZ=             -0.4460
  YYZ=             -5.8436  XYZ=             -1.4992
 Hexadecapole moment (field-independent basis, Debye-Ang**3):
 XXXX=          -8023.9994 YYYY=          -2228.7302 ZZZZ=           -345.6604 XXXY=           -318.5536
 XXXZ=           -173.8924 YYYX=             54.3014 YYYZ=            -12.2690 ZZZX=              1.0469
 ZZZY=             -0.8560 XXYY=          -1927.4302 XXZZ=          -1380.4353 YYZZ=           -430.6608
 XXYZ=             33.3049 YYXZ=            -31.8188 ZZXY=             -3.0144
 N-N= 1.966271351625D+03 E-N=-6.562567471166D+03  KE= 1.120149453947D+03
 PrsmSu:  requested number of processors reduced to:   8 ShMem   1 Linda.
 PrsmSu:  requested number of processors reduced to:  19 ShMem   1 Linda.
   1 Symmetry operations used in ECPInt.
 ECPInt:  NShTT=   11175 NPrTT=   86186 LenC2=   10119 LenP2D=   43802.
 LDataN:  DoStor=T MaxTD1= 3 Len=   28
 Number of processors reduced to   9 by ecpmxn.
 Calling FoFJK, ICntrl=      2127 FMM=F ISym2X=0 I1Cent= 0 IOpClX= 0 NMat=1 NMatS=1 NMatT=0.
 CoulSu:  requested number of processors reduced to:  19 ShMem   1 Linda.
 ***** Axes restored to original set *****
 -------------------------------------------------------------------
 Center     Atomic                   Forces (Hartrees/Bohr)
 Number     Number              X              Y              Z
 -------------------------------------------------------------------
      1        9           0.000976259   -0.005970481    0.000586748
      2        8          -0.002417195   -0.007906591   -0.001447875
      3        8          -0.015830484    0.010755954   -0.000043953
      4        8          -0.007797127    0.008180249    0.000373059
      5        7           0.007917422    0.001508673    0.000579978
      6        7          -0.007747882    0.000501912   -0.010495029
      7        7           0.002876887    0.005650030    0.000653369
      8        7           0.001211807    0.001078735    0.000091826
      9        6           0.001555400   -0.005398917   -0.006942058
     10        6          -0.002136601    0.008558624   -0.003755989
     11        6           0.003881787   -0.005499205    0.008069211
     12        6           0.000957144    0.002514252    0.009536185
     13        6           0.005040714    0.002383162    0.000478287
     14        6          -0.001427602    0.004045668    0.000440216
     15        6          -0.004878479   -0.002952643   -0.001194359
     16        6          -0.002068172    0.006339233   -0.000568888
     17        6          -0.000331622   -0.006371942   -0.000397194
     18        6          -0.001580095   -0.004325967   -0.006953464
     19        6           0.005232074    0.008322704    0.001921346
     20        6           0.006875958    0.006774626    0.001401382
     21        6          -0.006912238   -0.005845983   -0.001554671
     22        6          -0.002903206   -0.002278698    0.007338387
     23        6           0.007994672   -0.015338726   -0.001387091
     24        1           0.000112635    0.000384643    0.001632360
     25        1          -0.000870439    0.002756394    0.001362572
     26        1           0.003245950   -0.002734190   -0.000151176
     27        1           0.000200800   -0.001090003    0.001252673
     28        1          -0.000309374   -0.000331751   -0.002227185
     29        1          -0.000391305    0.000237653   -0.000435380
[...]
     5  N    0.130427   0.002821  -0.003937  -0.055633   0.003514   0.000178
     6  N   -0.002524   0.000059  -0.000002  -0.000234  -0.000013   0.000004
     7  N   -0.008633   0.171201  -0.059093  -0.001287   0.012270   0.242292
     8  N    0.500694   0.447561  -0.035937  -0.044550  -0.030048  -0.002965
     9  C   -0.075950  -0.005988   0.000000   0.002944   0.000437   0.000265
    10  C   -0.049377  -0.000049  -0.000125  -0.002519  -0.001865  -0.000006
    11  C   -0.026101   0.001032  -0.000226  -0.001831   0.000027   0.000150
    12  C   -0.017935  -0.000194  -0.000048   0.002793   0.000549   0.000001
    13  C    5.543103  -0.216105  -0.077751   0.293743  -0.090995  -0.003554
    14  C   -0.216105   5.779087   0.098599  -0.050760  -0.061166  -0.042896
    15  C   -0.077751   0.098599   5.666463  -0.026618   0.345998   0.003857
    16  C    0.293743  -0.050760  -0.026618   5.030777   0.409525  -0.000180
    17  C   -0.090995  -0.061166   0.345998   0.409525   5.611307   0.000200
    18  C   -0.003554  -0.042896   0.003857  -0.000180   0.000200   5.240063
    19  C   -0.004163  -0.007913   0.136441  -0.024937  -0.069174   0.000639
    20  C   -0.001701  -0.130727   0.005082  -0.000167   0.004352  -0.043697
    21  C   -0.001020   0.010260  -0.151180  -0.002206  -0.028076   0.003394
    22  C    0.001354  -0.018141  -0.001848  -0.000074   0.000038   0.278893
    23  C   -0.000012   0.006328  -0.032408  -0.000067  -0.000963   0.000440
    24  H    0.014734  -0.000100   0.000018   0.000589   0.000010  -0.000024
    25  H   -0.013516   0.002900  -0.000035  -0.000161   0.000018  -0.000055
    26  H   -0.007415   0.000054   0.000048   0.002587   0.000135   0.000000
    27  H    0.010837   0.000028  -0.000005  -0.001200   0.000002   0.000000
    28  H    0.012895  -0.001074   0.000063   0.000842   0.000019  -0.000247
    29  H   -0.000332   0.000038  -0.000001  -0.000022   0.000000   0.000001
    30  H   -0.000205   0.000000   0.000000  -0.000028  -0.000002   0.000000
    31  H    0.006017  -0.000022   0.000030   0.000870   0.000115  -0.000001
    32  H    0.000128  -0.000001   0.000000   0.000004   0.000000   0.000000
    33  H    0.001316   0.002822  -0.019915  -0.031685   0.312301   0.000004
    34  H   -0.000099   0.006050   0.000234   0.000003   0.000017   0.363037
    35  H    0.002170  -0.006886   0.000189   0.000085  -0.000073   0.372294
    36  H   -0.000017  -0.003285  -0.000381   0.000002   0.000096  -0.000453
    37  H   -0.000238   0.006950   0.000242  -0.000004   0.000031  -0.036579
    38  H    0.000029  -0.000167  -0.000039   0.000001  -0.000004  -0.036096
    39  H    0.000000  -0.000062  -0.000002   0.000000   0.000000  -0.028024
    40  H    0.000000   0.000000   0.000054   0.000000  -0.000001   0.000000
              19         20         21         22         23         24
     1  F   -0.000157   0.000000  -0.000006   0.000000   0.000000  -0.000003
     2  O    0.665078   0.001467  -0.073086  -0.000001  -0.007619   0.000000
     3  O    0.004733  -0.006279  -0.029057   0.000000   0.255329   0.000000
     4  O   -0.003808   0.006985  -0.066122   0.000003   0.590156   0.000000
     5  N   -0.000063   0.000063  -0.000020   0.000021   0.000000  -0.049876
     6  N    0.000000   0.000000   0.000000  -0.000007   0.000000   0.001797
     7  N   -0.006349   0.394701  -0.066101  -0.065152   0.007379  -0.000001
     8  N    0.000941  -0.009140  -0.002218  -0.003458   0.000032  -0.000397
     9  C   -0.000004  -0.000018   0.000003  -0.000073   0.000000   0.347344
    10  C    0.000001   0.000001   0.000000   0.000002   0.000000  -0.009553
    11  C   -0.000002   0.000013  -0.000001   0.000070   0.000000  -0.042880
    12  C   -0.000001   0.000000   0.000000   0.000002   0.000000  -0.003083
    13  C   -0.004163  -0.001701  -0.001020   0.001354  -0.000012   0.014734
    14  C   -0.007913  -0.130727   0.010260  -0.018141   0.006328  -0.000100
    15  C    0.136441   0.005082  -0.151180  -0.001848  -0.032408   0.000018
    16  C   -0.024937  -0.000167  -0.002206  -0.000074  -0.000067   0.000589
    17  C   -0.069174   0.004352  -0.028076   0.000038  -0.000963   0.000010
    18  C    0.000639  -0.043697   0.003394   0.278893   0.000440  -0.000024
    19  C    5.265519  -0.097495   0.021710   0.000123  -0.045613   0.000000
    20  C   -0.097495   5.552375   0.290105  -0.004615  -0.007921   0.000000
    21  C    0.021710   0.290105   5.932977  -0.000184   0.067998   0.000000
    22  C    0.000123  -0.004615  -0.000184   5.411838  -0.000034   0.000006
    23  C   -0.045613  -0.007921   0.067998  -0.000034   5.000563   0.000000
    24  H    0.000000   0.000000   0.000000   0.000006   0.000000   0.518418
    25  H    0.000000   0.000012   0.000000   0.000076   0.000000  -0.018885
    26  H    0.000000   0.000000   0.000000   0.000000   0.000000   0.000173
    27  H    0.000000   0.000000   0.000000   0.000000   0.000000   0.005699
    28  H    0.000001  -0.000005   0.000000   0.000345   0.000000   0.004315
    29  H    0.000000   0.000000   0.000000   0.000013   0.000000  -0.003602
    30  H    0.000000   0.000000   0.000000   0.000000   0.000000   0.000024
    31  H    0.000001   0.000000   0.000000   0.000002   0.000000   0.000232
    32  H    0.000000   0.000000   0.000000   0.000000   0.000000   0.000103
    33  H    0.004205  -0.000098   0.001986   0.000000  -0.000012   0.000000
    34  H   -0.000056  -0.000048   0.000147  -0.042881   0.000035   0.000000
    35  H   -0.000022   0.001854  -0.000162  -0.035137   0.000007   0.000011
    36  H    0.004028   0.315809  -0.007879  -0.000640  -0.008334   0.000000
    37  H    0.000007  -0.000406  -0.000014   0.373780   0.000000   0.000001
    38  H    0.000000   0.005093   0.000004   0.372683   0.000025   0.000000
    39  H    0.000000  -0.000044   0.000002   0.370454   0.000000   0.000000
    40  H    0.001403  -0.000327   0.005253   0.000000  -0.029278   0.000000
              25         26         27         28         29         30
     1  F   -0.000002   0.006839  -0.000081  -0.000001   0.000000  -0.000002
     2  O    0.000000   0.000000   0.000000   0.000000   0.000000   0.000000
     3  O    0.000000   0.000000   0.000000   0.000000   0.000000   0.000000
     4  O    0.000000   0.000000   0.000000   0.000000   0.000000   0.000000
     5  N   -0.030915  -0.029979  -0.048420  -0.007561   0.005309   0.005040
     6  N    0.003536   0.003103   0.003632  -0.073012  -0.035971  -0.035930
     7  N   -0.000068   0.000000   0.000000   0.000000   0.000000   0.000000
     8  N    0.013871   0.000007  -0.000009  -0.002223   0.000089   0.000000
     9  C    0.354180   0.005378  -0.004631  -0.057955  -0.019520  -0.001367
    10  C    0.005093   0.356642   0.338422  -0.000115  -0.001471  -0.020336
    11  C   -0.027288  -0.000238  -0.003895   0.363560   0.361669   0.007443
    12  C   -0.000389  -0.030394  -0.046358  -0.006686   0.007500   0.363646
    13  C   -0.013516  -0.007415   0.010837   0.012895  -0.000332  -0.000205
    14  C    0.002900   0.000054   0.000028  -0.001074   0.000038   0.000000
    15  C   -0.000035   0.000048  -0.000005   0.000063  -0.000001   0.000000
    16  C   -0.000161   0.002587  -0.001200   0.000842  -0.000022  -0.000028
    17  C    0.000018   0.000135   0.000002   0.000019   0.000000  -0.000002
    18  C   -0.000055   0.000000   0.000000  -0.000247   0.000001   0.000000
    19  C    0.000000   0.000000   0.000000   0.000001   0.000000   0.000000
    20  C    0.000012   0.000000   0.000000  -0.000005   0.000000   0.000000
    21  C    0.000000   0.000000   0.000000   0.000000   0.000000   0.000000
    22  C    0.000076   0.000000   0.000000   0.000345   0.000013   0.000000
    23  C    0.000000   0.000000   0.000000   0.000000   0.000000   0.000000
    24  H   -0.018885   0.000173   0.005699   0.004315  -0.003602   0.000024
    25  H    0.477822  -0.000048   0.000291   0.001279   0.000188  -0.000001
    26  H   -0.000048   0.444339  -0.013718   0.000082  -0.000001  -0.000102
    27  H    0.000291  -0.013718   0.524439   0.000233   0.000059  -0.003269
    28  H    0.001279   0.000082   0.000233   0.592093  -0.032560  -0.000193
    29  H    0.000188  -0.000001   0.000059  -0.032560   0.510278  -0.000059
    30  H   -0.000001  -0.000102  -0.003269  -0.000193  -0.000059   0.502485
    31  H    0.000116   0.001166   0.004919   0.009873  -0.000186  -0.031769
    32  H   -0.000096  -0.000086   0.000003   0.000710  -0.005135  -0.005038
    33  H    0.000000   0.000002   0.000000   0.000000   0.000000   0.000000
    34  H    0.000008   0.000000   0.000000   0.000000   0.000000   0.000000
    35  H    0.000928   0.000000   0.000000   0.000032  -0.000003   0.000000
    36  H    0.000000   0.000000   0.000000   0.000000   0.000000   0.000000
    37  H    0.000010   0.000000   0.000000   0.000887  -0.000013   0.000000
    38  H    0.000001   0.000000   0.000000   0.000011   0.000000   0.000000
    39  H   -0.000003   0.000000   0.000000  -0.000012  -0.000002   0.000000
    40  H    0.000000   0.000000   0.000000   0.000000   0.000000   0.000000
              31         32         33         34         35         36
     1  F    0.000059   0.000000   0.000645   0.000000   0.000000   0.000000
     2  O    0.000000   0.000000   0.009638   0.000000   0.000000  -0.000053
     3  O    0.000000   0.000000   0.000000   0.000000   0.000000   0.000331
     4  O    0.000000   0.000000   0.000000  -0.000002   0.000000   0.012034
     5  N   -0.003317  -0.000492  -0.000061   0.000000  -0.000070   0.000000
     6  N   -0.076080   0.324688   0.000000   0.000000   0.000000   0.000000
     7  N    0.000000   0.000000  -0.000093  -0.041235  -0.038281  -0.039350
     8  N   -0.000465  -0.000006  -0.000237  -0.000374   0.013281  -0.000042
     9  C   -0.000413   0.005302   0.000000  -0.000010  -0.000051   0.000000
    10  C   -0.056859   0.005021   0.000020   0.000000   0.000003   0.000000
    11  C   -0.006448  -0.035306   0.000000   0.000002  -0.000042   0.000000
    12  C    0.357609  -0.036535  -0.000004   0.000000  -0.000001   0.000000
    13  C    0.006017   0.000128   0.001316  -0.000099   0.002170  -0.000017
    14  C   -0.000022  -0.000001   0.002822   0.006050  -0.006886  -0.003285
    15  C    0.000030   0.000000  -0.019915   0.000234   0.000189  -0.000381
    16  C    0.000870   0.000004  -0.031685   0.000003   0.000085   0.000002
    17  C    0.000115   0.000000   0.312301   0.000017  -0.000073   0.000096
    18  C   -0.000001   0.000000   0.000004   0.363037   0.372294  -0.000453
    19  C    0.000001   0.000000   0.004205  -0.000056  -0.000022   0.004028
    20  C    0.000000   0.000000  -0.000098  -0.000048   0.001854   0.315809
    21  C    0.000000   0.000000   0.001986   0.000147  -0.000162  -0.007879
    22  C    0.000002   0.000000   0.000000  -0.042881  -0.035137  -0.000640
    23  C    0.000000   0.000000  -0.000012   0.000035   0.000007  -0.008334
    24  H    0.000232   0.000103   0.000000   0.000000   0.000011   0.000000
    25  H    0.000116  -0.000096   0.000000   0.000008   0.000928   0.000000
    26  H    0.001166  -0.000086   0.000002   0.000000   0.000000   0.000000
    27  H    0.004919   0.000003   0.000000   0.000000   0.000000   0.000000
    28  H    0.009873   0.000710   0.000000   0.000000   0.000032   0.000000
    29  H   -0.000186  -0.005135   0.000000   0.000000  -0.000003   0.000000
    30  H   -0.031769  -0.005038   0.000000   0.000000   0.000000   0.000000
    31  H    0.609662   0.000666   0.000000   0.000000   0.000000   0.000000
    32  H    0.000666   0.445699   0.000000   0.000000   0.000000   0.000000
    33  H    0.000000   0.000000   0.419274   0.000000   0.000000   0.000000
    34  H    0.000000   0.000000   0.000000   0.525951  -0.027597   0.001473
    35  H    0.000000   0.000000   0.000000  -0.027597   0.478246   0.000178
    36  H    0.000000   0.000000   0.000000   0.001473   0.000178   0.444589
    37  H    0.000004   0.000000   0.000000   0.003150  -0.003675   0.000013
    38  H    0.000000   0.000000   0.000000  -0.003834   0.003114  -0.000192
    39  H    0.000000   0.000000   0.000000  -0.001206  -0.001270   0.000010
    40  H    0.000000   0.000000   0.000000   0.000000   0.000000   0.000001
              37         38         39         40
     1  F    0.000000   0.000000   0.000000   0.000000
     2  O    0.000000   0.000000   0.000000   0.000301
     3  O    0.000000   0.000000   0.000000   0.249624
     4  O    0.000000   0.000001   0.000000   0.003062
     5  N   -0.000028   0.000000   0.000000   0.000000
     6  N   -0.000009   0.000000   0.000000   0.000000
     7  N   -0.003972  -0.004067   0.004701   0.000002
     8  N    0.000497   0.000201  -0.000082   0.000000
     9  C   -0.000169   0.000001  -0.000018   0.000000
    10  C    0.000003   0.000000   0.000000   0.000000
    11  C    0.000207  -0.000002   0.000036   0.000000
    12  C   -0.000003   0.000000   0.000000   0.000000
    13  C   -0.000238   0.000029   0.000000   0.000000
    14  C    0.006950  -0.000167  -0.000062   0.000000
    15  C    0.000242  -0.000039  -0.000002   0.000054
    16  C   -0.000004   0.000001   0.000000   0.000000
    17  C    0.000031  -0.000004   0.000000  -0.000001
    18  C   -0.036579  -0.036096  -0.028024   0.000000
    19  C    0.000007   0.000000   0.000000   0.001403
    20  C   -0.000406   0.005093  -0.000044  -0.000327
    21  C   -0.000014   0.000004   0.000002   0.005253
    22  C    0.373780   0.372683   0.370454   0.000000
    23  C    0.000000   0.000025   0.000000  -0.029278
    24  H    0.000001   0.000000   0.000000   0.000000
    25  H    0.000010   0.000001  -0.000003   0.000000
    26  H    0.000000   0.000000   0.000000   0.000000
    27  H    0.000000   0.000000   0.000000   0.000000
    28  H    0.000887   0.000011  -0.000012   0.000000
    29  H   -0.000013   0.000000  -0.000002   0.000000
    30  H    0.000000   0.000000   0.000000   0.000000
    31  H    0.000004   0.000000   0.000000   0.000000
    32  H    0.000000   0.000000   0.000000   0.000000
    33  H    0.000000   0.000000   0.000000   0.000000
    34  H    0.003150  -0.003834  -0.001206   0.000000
    35  H   -0.003675   0.003114  -0.001270   0.000000
    36  H    0.000013  -0.000192   0.000010   0.000001
    37  H    0.464198  -0.021161  -0.019456   0.000000
    38  H   -0.021161   0.485427  -0.020255   0.000000
    39  H   -0.019456  -0.020255   0.477019   0.000000
    40  H    0.000000   0.000000   0.000000   0.362612
 Mulliken charges:
               1
     1  F   -0.258682
     2  O   -0.291646
     3  O   -0.453215
     4  O   -0.355078
     5  N   -0.197165
     6  N   -0.372457
     7  N   -0.180894
     8  N   -0.120860
     9  C   -0.344555
    10  C   -0.376667
    11  C   -0.368003
    12  C   -0.352317
    13  C    0.127543
    14  C    0.010205
    15  C    0.244728
    16  C    0.230840
    17  C   -0.363782
    18  C   -0.311157
    19  C    0.154927
    20  C   -0.275224
    21  C    0.093491
    22  C   -0.637455
    23  C    0.203969
    24  H    0.234933
    25  H    0.231134
    26  H    0.261426
    27  H    0.233023
    28  H    0.194401
    29  H    0.213735
    30  H    0.219662
    31  H    0.184222
    32  H    0.300372
    33  H    0.299892
    34  H    0.217234
    35  H    0.240877
    36  H    0.282061
    37  H    0.235748
    38  H    0.219227
    39  H    0.218214
    40  H    0.407294
 Sum of Mulliken charges =   0.00000
 Mulliken charges with hydrogens summed into heavy atoms:
               1
     1  F   -0.258682
     2  O   -0.291646
     3  O   -0.045921
     4  O   -0.355078
     5  N   -0.197165
     6  N   -0.072086
     7  N   -0.180894
     8  N   -0.120860
     9  C    0.121511
    10  C    0.117781
    11  C    0.040134
    12  C    0.051567
    13  C    0.127543
    14  C    0.010205
    15  C    0.244728
    16  C    0.230840
    17  C   -0.063890
    18  C    0.146954
    19  C    0.154927
    20  C    0.006837
    21  C    0.093491
    22  C    0.035734
    23  C    0.203969
 Electronic spatial extent (au):  <R**2>=           8582.4087
 Charge=              0.0000 electrons
 Dipole moment (field-independent basis, Debye):
    X=             -6.3025    Y=              5.3208    Z=              0.4216  Tot=              8.2589
 Quadrupole moment (field-independent basis, Debye-Ang):
   XX=           -136.4357   YY=           -135.5484   ZZ=           -129.8827
   XY=              1.1337   XZ=             -7.2407   YZ=             -0.5887
 Traceless Quadrupole moment (field-independent basis, Debye-Ang):
   XX=             -2.4801   YY=             -1.5928   ZZ=              4.0729
   XY=              1.1337   XZ=             -7.2407   YZ=             -0.5887
 Octapole moment (field-independent basis, Debye-Ang**2):
  XXX=            -65.3063  YYY=             55.6275  ZZZ=              6.1207  XYY=            -48.1311
  XXY=            -24.4350  XXZ=             43.3360  XZZ=            -12.6344  YZZ=              1.7779
  YYZ=             -4.8714  XYZ=              0.3778
 Hexadecapole moment (field-independent basis, Debye-Ang**3):
 XXXX=          -7733.7675 YYYY=          -2252.9227 ZZZZ=           -396.5249 XXXY=           -334.8681
 XXXZ=            -89.6996 YYYX=             39.8357 YYYZ=            -13.7610 ZZZX=             -7.1429
 ZZZY=              1.4708 XXYY=          -1897.3472 XXZZ=          -1325.7974 YYZZ=           -440.2585
 XXYZ=             20.1661 YYXZ=            -41.7757 ZZXY=             -9.1077
 N-N= 1.969932823957D+03 E-N=-6.569754107055D+03  KE= 1.120030039854D+03
 1\1\GINC-NODE045\FOpt\RM06\LANL2DZ\C15H17F1N4O3\SUPERCOMPUTO1\21-Jul-2
 020\0\\#opt M06/lanl2dz integral=ultrafine geom=connectivity\\Title Ca
 rd Required\\0,1\F,1.9422567719,-3.0379786496,0.4586113353\O,-3.003477
 2378,-2.3762253153,-0.3009863047\O,-5.4171396823,-1.0218318624,-0.5296
 897723\O,-5.3895686461,1.2346121788,-0.2579700744\N,2.9961922548,-0.33
 80230164,0.7193456879\N,5.0687894132,0.8135980906,-0.8018474216\N,-1.3
 391434334,1.3738973577,0.3618885671\N,0.8050992774,0.4393195223,0.5037
 198104\C,3.4348597867,1.0434792368,0.9859050367\C,4.1047145642,-1.1805
 500691,0.2273785947\C,3.9865248142,1.6636534695,-0.3023759882\C,4.6587
 400244,-0.5655254819,-1.0650486437\C,1.6668600718,-0.6049634841,0.5115
 907382\C,-0.5130870836,0.2409275735,0.3312453081\C,-1.0997436636,-1.01
 89293157,0.1121316378\C,1.1199067122,-1.9200492094,0.3514725362\C,-0.2
 210939021,-2.1214148228,0.1419590802\C,-0.7558465405,2.7204978239,0.54
 96160712\C,-2.5470564437,-1.2232965801,-0.1143040502\C,-2.6731925903,1
 .230236535,0.1413945332\C,-3.3148602234,0.03011451,-0.0903934647\C,-0.
 2847537167,3.3102584435,-0.7784343465\C,-4.7685484023,0.1533172632,-0.
 292424338\H,4.2356638683,0.9995405173,1.7348248246\H,2.5944864768,1.62
 23611656,1.371388787\H,3.7743113445,-2.2039538589,0.0620650913\H,4.893
 9740112,-1.1808604692,0.9888421121\H,3.148543707,1.7593806525,-1.02343
 89127\H,4.3770758717,2.6653484008,-0.0948554061\H,5.5241314253,-1.1453
 48143,-1.4024570363\H,3.8711633856,-0.6362470348,-1.8446853151\H,5.637
 685991,1.233424039,-1.5299171761\H,-0.6301618518,-3.120722787,0.020236
 3303\H,-1.5252992591,3.3476172719,1.0126528131\H,0.0812607247,2.624979
 0616,1.2456046608\H,-3.26970787,2.1404817873,0.155040498\H,0.493999780
 5,2.6775480886,-1.2168677572\H,-1.1156686781,3.38526994,-1.4893088541\
 H,0.1281300909,4.3126912035,-0.625947042\H,-6.3769771435,-0.8507200332
 ,-0.6523331502\\Version=ES64L-G09RevD.01\State=1-A\HF=-1125.5192631\RM
 SD=5.054e-09\RMSF=2.621e-06\Dipole=2.4968295,2.0697826,-0.1998171\Quad
 rupole=-1.6663727,-1.1322608,2.7986335,-1.049934,-5.4265716,0.6095835\
 PG=C01 [X(C15H17F1N4O3)]\\@


 Experience is what you get when you don't get what you want.
 -- Dan Stanford
 Job cpu time:       0 days  4 hours  8 minutes 20.8 seconds.
 File lengths (MBytes):  RWF=     39 Int=      0 D2E=      0 Chk=      6 Scr=      1
 Normal termination of Gaussian 09 at Tue Jul 21 07:33:21 2020.
