 Entering Gaussian System, Link 0=g09
 Input=acpiromidico.gjf
 Output=acpiromidico.log
 Initial command:
 /usr/local/cluster_programs/g09/l1.exe "/tmp/scratch/64194.prometeo/Gau-12823.inp" -scrdir="/tmp/scratch/64194.prometeo/"
 Entering Link 1 = /usr/local/cluster_programs/g09/l1.exe PID=     12824.
  
 Copyright (c) 1988,1990,1992,1993,1995,1998,2003,2009,2013,
            Gaussian, Inc.  All Rights Reserved.
  
 This is part of the Gaussian(R) 09 program.  It is based on
 the Gaussian(R) 03 system (copyright 2003, Gaussian, Inc.),
 the Gaussian(R) 98 system (copyright 1998, Gaussian, Inc.),
 the Gaussian(R) 94 system (copyright 1995, Gaussian, Inc.),
 the Gaussian 92(TM) system (copyright 1992, Gaussian, Inc.),
 the Gaussian 90(TM) system (copyright 1990, Gaussian, Inc.),
 the Gaussian 88(TM) system (copyright 1988, Gaussian, Inc.),
 the Gaussian 86(TM) system (copyright 1986, Carnegie Mellon
 University), and the Gaussian 82(TM) system (copyright 1983,
 Carnegie Mellon University). Gaussian is a federally registered
 trademark of Gaussian, Inc.
  
 This software contains proprietary and confidential information,
 including trade secrets, belonging to Gaussian, Inc.
  
 This software is provided under written license and may be
 used, copied, transmitted, or stored only in accord with that
 written license.
  
 The following legend is applicable only to US Government
 contracts under FAR:
  
                    RESTRICTED RIGHTS LEGEND
  
 Use, reproduction and disclosure by the US Government is
 subject to restrictions as set forth in subparagraphs (a)
 and (c) of the Commercial Computer Software - Restricted
 Rights clause in FAR 52.227-19.
  
 Gaussian, Inc.
 340 Quinnipiac St., Bldg. 40, Wallingford CT 06492
  
  
 ---------------------------------------------------------------
 Warning -- This program may not be used in any manner that
 competes with the business of Gaussian, Inc. or will provide
 assistance to any competitor of Gaussian, Inc.  The licensee
 of this program is prohibited from giving any competitor of
 Gaussian, Inc. access to this program.  By using this program,
 the user acknowledges that Gaussian, Inc. is engaged in the
 business of creating and licensing software in the field of
 computational chemistry and represents and warrants to the
 licensee that it is not a competitor of Gaussian, Inc. and that
 it will not use this program in any manner prohibited above.
 ---------------------------------------------------------------
  

 Cite this work as:
 Gaussian 09, Revision D.01,
 M. J. Frisch, G. W. Trucks, H. B. Schlegel, G. E. Scuseria, 
 M. A. Robb, J. R. Cheeseman, G. Scalmani, V. Barone, B. Mennucci, 
 G. A. Petersson, H. Nakatsuji, M. Caricato, X. Li, H. P. Hratchian, 
 A. F. Izmaylov, J. Bloino, G. Zheng, J. L. Sonnenberg, M. Hada, 
 M. Ehara, K. Toyota, R. Fukuda, J. Hasegawa, M. Ishida, T. Nakajima, 
 Y. Honda, O. Kitao, H. Nakai, T. Vreven, J. A. Montgomery, Jr., 
 J. E. Peralta, F. Ogliaro, M. Bearpark, J. J. Heyd, E. Brothers, 
 K. N. Kudin, V. N. Staroverov, T. Keith, R. Kobayashi, J. Normand, 
 K. Raghavachari, A. Rendell, J. C. Burant, S. S. Iyengar, J. Tomasi, 
 M. Cossi, N. Rega, J. M. Millam, M. Klene, J. E. Knox, J. B. Cross, 
 V. Bakken, C. Adamo, J. Jaramillo, R. Gomperts, R. E. Stratmann, 
 O. Yazyev, A. J. Austin, R. Cammi, C. Pomelli, J. W. Ochterski, 
 R. L. Martin, K. Morokuma, V. G. Zakrzewski, G. A. Voth, 
 P. Salvador, J. J. Dannenberg, S. Dapprich, A. D. Daniels, 
 O. Farkas, J. B. Foresman, J. V. Ortiz, J. Cioslowski, 
 and D. J. Fox, Gaussian, Inc., Wallingford CT, 2013.
 
 ******************************************
 Gaussian 09:  ES64L-G09RevD.01 24-Apr-2013
                21-Jul-2020 
 ******************************************
 %nprocshared=20
 Will use up to   20 processors via shared memory.
 -----------------------------------------------------
 #opt M06/lanl2dz integral=ultrafine geom=connectivity
 -----------------------------------------------------
 1/14=-1,18=20,19=15,26=4,38=1,57=2/1,3;
 2/9=110,12=2,17=6,18=5,40=1/2;
 3/5=6,6=3,11=2,16=1,25=1,30=1,71=1,74=-54,75=-5/1,2,3;
 4//1;
 5/5=2,38=5/2;
 6/7=2,8=2,9=2,10=2,28=1/1;
 7//1,2,3,16;
 1/14=-1,18=20,19=15,26=4/3(2);
 2/9=110/2;
 99//99;
 2/9=110/2;
 3/5=6,6=3,11=2,16=1,25=1,30=1,71=1,74=-54,75=-5/1,2,3;
 4/5=5,16=3,69=1/1;
 5/5=2,38=5/2;
 7//1,2,3,16;
 1/14=-1,18=20,19=15,26=4/3(-5);
 2/9=110/2;
 6/7=2,8=2,9=2,10=2,19=2,28=1/1;
 99/9=1/99;
 -------------------
 Title Card Required
 -------------------
 Symbolic Z-matrix:
 Charge =  0 Multiplicity = 1
 O(PDBName=O1,ResName=MOL,ResNum=1) 0    -2.63589  -2.48621   0.23568  L 
 O(PDBName=O2,ResName=MOL,ResNum=1) 0    -5.08716  -1.3016    0.06301  L 
 O(PDBName=O3,ResName=MOL,ResNum=1) 0    -5.17733   0.9591   -0.23407  L 
 N(PDBName=N4,ResName=MOL,ResNum=1) 0     3.22934  -0.3378   -0.02635  L 
 N(PDBName=N5,ResName=MOL,ResNum=1) 0    -1.1049    1.34066  -0.26945  L 
 N(PDBName=N6,ResName=MOL,ResNum=1) 0     1.07978   0.51407  -0.14832  L 
 N(PDBName=N7,ResName=MOL,ResNum=1) 0     1.48908  -1.85877   0.16807  L 
 C(PDBName=C8,ResName=MOL,ResNum=1) 0     5.32463   0.75535   0.12124  L 
 C(PDBName=C9,ResName=MOL,ResNum=1) 0     5.54503  -0.71431  -0.32835  L 
 C(PDBName=C10,ResName=MOL,ResNum=1) 0     3.82966   1.00666  -0.19392  L 
 C(PDBName=C11,ResName=MOL,ResNum=1) 0     4.2374   -1.42066   0.1029   L 
 C(PDBName=C12,ResName=MOL,ResNum=1) 0     1.90336  -0.5571   -0.00312  L 
 C(PDBName=C13,ResName=MOL,ResNum=1) 0    -0.23634   0.26163  -0.11986  L 
 C(PDBName=C14,ResName=MOL,ResNum=1) 0    -0.77266  -1.0257    0.04812  L 
 C(PDBName=C15,ResName=MOL,ResNum=1) 0    -0.55703   2.71951  -0.41286  L 
 C(PDBName=C16,ResName=MOL,ResNum=1) 0     0.17107  -2.05416   0.18662  L 
 C(PDBName=C17,ResName=MOL,ResNum=1) 0    -2.44866   1.1135   -0.2397   L 
 C(PDBName=C18,ResName=MOL,ResNum=1) 0    -2.21792  -1.32232   0.08283  L 
 C(PDBName=C19,ResName=MOL,ResNum=1) 0    -3.03503  -0.11045  -0.08035  L 
 C(PDBName=C20,ResName=MOL,ResNum=1) 0    -0.20547   3.32952   0.95462  L 
 C(PDBName=C21,ResName=MOL,ResNum=1) 0    -4.50535  -0.0705   -0.09484  L 
 H(PDBName=H22,ResName=MOL,ResNum=1) 0     5.4937    0.84025   1.19986  L 
 H(PDBName=H23,ResName=MOL,ResNum=1) 0     5.97757   1.46032  -0.39831  L 
 H(PDBName=H24,ResName=MOL,ResNum=1) 0     5.64628  -0.75658  -1.41799  L 
 H(PDBName=H25,ResName=MOL,ResNum=1) 0     6.42673  -1.16853   0.12932  L 
 H(PDBName=H26,ResName=MOL,ResNum=1) 0     3.35795   1.721     0.48446  L 
 H(PDBName=H27,ResName=MOL,ResNum=1) 0     3.68839   1.35866  -1.22299  L 
 H(PDBName=H28,ResName=MOL,ResNum=1) 0     3.96468  -2.26708  -0.52884  L 
 H(PDBName=H29,ResName=MOL,ResNum=1) 0     4.29067  -1.76523   1.1421   L 
 H(PDBName=H30,ResName=MOL,ResNum=1) 0     0.33732   2.64237  -1.03175  L 
 H(PDBName=H31,ResName=MOL,ResNum=1) 0    -1.31575   3.31192  -0.9304   L 
 H(PDBName=H32,ResName=MOL,ResNum=1) 0    -0.20059  -3.06471   0.31707  L 
 H(PDBName=H33,ResName=MOL,ResNum=1) 0    -3.09425   1.97586  -0.35888  L 
 H(PDBName=H34,ResName=MOL,ResNum=1) 0    -1.08546   3.35956   1.60445  L 
 H(PDBName=H35,ResName=MOL,ResNum=1) 0     0.57301   2.72618   1.42797  L 
 H(PDBName=H36,ResName=MOL,ResNum=1) 0     0.16878   4.35026   0.82084  L 
 H(PDBName=H37,ResName=MOL,ResNum=1) 0    -6.07518  -1.16744   0.03866  L 
 
 Center=      0.72917443      0.33235719      0.02939057
 Residue   1 PDB Number     1_0 MOL charge    0.00000000 layers R        AvRTP=      0.00000000      0.00000000      0.00000000

 GradGradGradGradGradGradGradGradGradGradGradGradGradGradGradGradGradGrad
 Berny optimization.
 Initialization pass.
                           ----------------------------
                           !    Initial Parameters    !
                           ! (Angstroms and Degrees)  !
 --------------------------                            --------------------------
 ! Name  Definition              Value          Derivative Info.                !
 --------------------------------------------------------------------------------
 ! R1    R(1,18)                 1.2461         estimate D2E/DX2                !
 ! R2    R(2,21)                 1.3708         estimate D2E/DX2                !
 ! R3    R(2,37)                 0.9974         estimate D2E/DX2                !
 ! R4    R(3,21)                 1.2373         estimate D2E/DX2                !
 ! R5    R(4,10)                 1.4819         estimate D2E/DX2                !
 ! R6    R(4,11)                 1.4851         estimate D2E/DX2                !
 ! R7    R(4,12)                 1.3442         estimate D2E/DX2                !
 ! R8    R(5,13)                 1.3932         estimate D2E/DX2                !
 ! R9    R(5,15)                 1.4906         estimate D2E/DX2                !
 ! R10   R(5,17)                 1.3631         estimate D2E/DX2                !
 ! R11   R(6,12)                 1.3589         estimate D2E/DX2                !
 ! R12   R(6,13)                 1.3404         estimate D2E/DX2                !
 ! R13   R(7,12)                 1.3767         estimate D2E/DX2                !
 ! R14   R(7,16)                 1.3325         estimate D2E/DX2                !
 ! R15   R(8,9)                  1.5526         estimate D2E/DX2                !
 ! R16   R(8,10)                 1.5484         estimate D2E/DX2                !
 ! R17   R(8,22)                 1.0951         estimate D2E/DX2                !
 ! R18   R(8,23)                 1.0924         estimate D2E/DX2                !
 ! R19   R(9,11)                 1.5475         estimate D2E/DX2                !
 ! R20   R(9,24)                 1.0951         estimate D2E/DX2                !
 ! R21   R(9,25)                 1.0923         estimate D2E/DX2                !
 ! R22   R(10,26)                1.0922         estimate D2E/DX2                !
 ! R23   R(10,27)                1.0967         estimate D2E/DX2                !
 ! R24   R(11,28)                1.0908         estimate D2E/DX2                !
 ! R25   R(11,29)                1.0961         estimate D2E/DX2                !
 ! R26   R(13,14)                1.4047         estimate D2E/DX2                !
 ! R27   R(14,16)                1.4027         estimate D2E/DX2                !
 ! R28   R(14,18)                1.4758         estimate D2E/DX2                !
 ! R29   R(15,20)                1.5381         estimate D2E/DX2                !
 ! R30   R(15,30)                1.0903         estimate D2E/DX2                !
 ! R31   R(15,31)                1.0929         estimate D2E/DX2                !
 ! R32   R(16,32)                1.0846         estimate D2E/DX2                !
 ! R33   R(17,19)                1.3665         estimate D2E/DX2                !
 ! R34   R(17,33)                1.0838         estimate D2E/DX2                !
 ! R35   R(18,19)                1.4707         estimate D2E/DX2                !
 ! R36   R(19,21)                1.4709         estimate D2E/DX2                !
 ! R37   R(20,34)                1.0943         estimate D2E/DX2                !
 ! R38   R(20,35)                1.0928         estimate D2E/DX2                !
 ! R39   R(20,36)                1.0954         estimate D2E/DX2                !
 ! A1    A(21,2,37)            107.2676         estimate D2E/DX2                !
 ! A2    A(10,4,11)            113.3525         estimate D2E/DX2                !
 ! A3    A(10,4,12)            123.3378         estimate D2E/DX2                !
 ! A4    A(11,4,12)            123.3081         estimate D2E/DX2                !
 ! A5    A(13,5,15)            119.8419         estimate D2E/DX2                !
 ! A6    A(13,5,17)            118.8909         estimate D2E/DX2                !
 ! A7    A(15,5,17)            121.2358         estimate D2E/DX2                !
 ! A8    A(12,6,13)            116.381          estimate D2E/DX2                !
 ! A9    A(12,7,16)            115.977          estimate D2E/DX2                !
 ! A10   A(9,8,10)             103.4002         estimate D2E/DX2                !
 ! A11   A(9,8,22)             109.6748         estimate D2E/DX2                !
 ! A12   A(9,8,23)             112.8491         estimate D2E/DX2                !
 ! A13   A(10,8,22)            109.6923         estimate D2E/DX2                !
 ! A14   A(10,8,23)            112.06           estimate D2E/DX2                !
 ! A15   A(22,8,23)            109.0352         estimate D2E/DX2                !
 ! A16   A(8,9,11)             103.3799         estimate D2E/DX2                !
 ! A17   A(8,9,24)             109.7406         estimate D2E/DX2                !
 ! A18   A(8,9,25)             112.7597         estimate D2E/DX2                !
 ! A19   A(11,9,24)            109.7418         estimate D2E/DX2                !
 ! A20   A(11,9,25)            112.055          estimate D2E/DX2                !
 ! A21   A(24,9,25)            109.0386         estimate D2E/DX2                !
 ! A22   A(4,10,8)             102.7599         estimate D2E/DX2                !
 ! A23   A(4,10,26)            110.3759         estimate D2E/DX2                !
 ! A24   A(4,10,27)            110.1885         estimate D2E/DX2                !
 ! A25   A(8,10,26)            113.3726         estimate D2E/DX2                !
 ! A26   A(8,10,27)            111.5575         estimate D2E/DX2                !
 ! A27   A(26,10,27)           108.4954         estimate D2E/DX2                !
 ! A28   A(4,11,9)             102.5039         estimate D2E/DX2                !
 ! A29   A(4,11,28)            110.2227         estimate D2E/DX2                !
 ! A30   A(4,11,29)            110.1641         estimate D2E/DX2                !
 ! A31   A(9,11,28)            113.831          estimate D2E/DX2                !
 ! A32   A(9,11,29)            111.5074         estimate D2E/DX2                !
 ! A33   A(28,11,29)           108.4989         estimate D2E/DX2                !
 ! A34   A(4,12,6)             117.8648         estimate D2E/DX2                !
 ! A35   A(4,12,7)             116.952          estimate D2E/DX2                !
 ! A36   A(6,12,7)             125.1832         estimate D2E/DX2                !
 ! A37   A(5,13,6)             117.6442         estimate D2E/DX2                !
 ! A38   A(5,13,14)            118.9864         estimate D2E/DX2                !
 ! A39   A(6,13,14)            123.3691         estimate D2E/DX2                !
 ! A40   A(13,14,16)           115.2703         estimate D2E/DX2                !
 ! A41   A(13,14,18)           124.1202         estimate D2E/DX2                !
 ! A42   A(16,14,18)           120.6095         estimate D2E/DX2                !
 ! A43   A(5,15,20)            111.4285         estimate D2E/DX2                !
 ! A44   A(5,15,30)            106.8966         estimate D2E/DX2                !
 ! A45   A(5,15,31)            106.9663         estimate D2E/DX2                !
 ! A46   A(20,15,30)           110.1952         estimate D2E/DX2                !
 ! A47   A(20,15,31)           111.3899         estimate D2E/DX2                !
 ! A48   A(30,15,31)           109.816          estimate D2E/DX2                !
 ! A49   A(7,16,14)            123.8192         estimate D2E/DX2                !
 ! A50   A(7,16,32)            118.5043         estimate D2E/DX2                !
 ! A51   A(14,16,32)           117.6765         estimate D2E/DX2                !
 ! A52   A(5,17,19)            125.0863         estimate D2E/DX2                !
 ! A53   A(5,17,33)            116.8855         estimate D2E/DX2                !
 ! A54   A(19,17,33)           118.0269         estimate D2E/DX2                !
 ! A55   A(1,18,14)            121.2723         estimate D2E/DX2                !
 ! A56   A(1,18,19)            126.6495         estimate D2E/DX2                !
 ! A57   A(14,18,19)           112.0781         estimate D2E/DX2                !
 ! A58   A(17,19,18)           120.8366         estimate D2E/DX2                !
 ! A59   A(17,19,21)           113.7942         estimate D2E/DX2                !
 ! A60   A(18,19,21)           125.369          estimate D2E/DX2                !
 ! A61   A(15,20,34)           110.7955         estimate D2E/DX2                !
 ! A62   A(15,20,35)           109.2073         estimate D2E/DX2                !
 ! A63   A(15,20,36)           109.8215         estimate D2E/DX2                !
 ! A64   A(34,20,35)           109.3172         estimate D2E/DX2                !
 ! A65   A(34,20,36)           108.7643         estimate D2E/DX2                !
 ! A66   A(35,20,36)           108.9054         estimate D2E/DX2                !
 ! A67   A(2,21,3)             121.9893         estimate D2E/DX2                !
 ! A68   A(2,21,19)            113.499          estimate D2E/DX2                !
 ! A69   A(3,21,19)            124.5117         estimate D2E/DX2                !
 ! D1    D(37,2,21,3)            0.035          estimate D2E/DX2                !
 ! D2    D(37,2,21,19)        -179.9682         estimate D2E/DX2                !
 ! D3    D(11,4,10,8)          -10.9877         estimate D2E/DX2                !
 ! D4    D(11,4,10,26)        -132.187          estimate D2E/DX2                !
 ! D5    D(11,4,10,27)         108.003          estimate D2E/DX2                !
 ! D6    D(12,4,10,8)          169.4587         estimate D2E/DX2                !
 ! D7    D(12,4,10,26)          48.2594         estimate D2E/DX2                !
 ! D8    D(12,4,10,27)         -71.5506         estimate D2E/DX2                !
 ! D9    D(10,4,11,9)          -12.8839         estimate D2E/DX2                !
 ! D10   D(10,4,11,28)        -134.4            estimate D2E/DX2                !
 ! D11   D(10,4,11,29)         105.8985         estimate D2E/DX2                !
 ! D12   D(12,4,11,9)          166.6699         estimate D2E/DX2                !
 ! D13   D(12,4,11,28)          45.1538         estimate D2E/DX2                !
 ! D14   D(12,4,11,29)         -74.5478         estimate D2E/DX2                !
 ! D15   D(10,4,12,6)            0.3471         estimate D2E/DX2                !
 ! D16   D(10,4,12,7)         -179.6113         estimate D2E/DX2                !
 ! D17   D(11,4,12,6)         -179.1625         estimate D2E/DX2                !
 ! D18   D(11,4,12,7)            0.8791         estimate D2E/DX2                !
 ! D19   D(15,5,13,6)           -1.7845         estimate D2E/DX2                !
 ! D20   D(15,5,13,14)         178.3883         estimate D2E/DX2                !
 ! D21   D(17,5,13,6)         -179.7706         estimate D2E/DX2                !
 ! D22   D(17,5,13,14)           0.4023         estimate D2E/DX2                !
 ! D23   D(13,5,15,20)         -81.9842         estimate D2E/DX2                !
 ! D24   D(13,5,15,30)          38.4668         estimate D2E/DX2                !
 ! D25   D(13,5,15,31)         156.0534         estimate D2E/DX2                !
 ! D26   D(17,5,15,20)          95.9535         estimate D2E/DX2                !
 ! D27   D(17,5,15,30)        -143.5954         estimate D2E/DX2                !
 ! D28   D(17,5,15,31)         -26.0088         estimate D2E/DX2                !
 ! D29   D(13,5,17,19)          -0.4341         estimate D2E/DX2                !
 ! D30   D(13,5,17,33)         179.9813         estimate D2E/DX2                !
 ! D31   D(15,5,17,19)        -178.391          estimate D2E/DX2                !
 ! D32   D(15,5,17,33)           2.0243         estimate D2E/DX2                !
 ! D33   D(13,6,12,4)         -179.9614         estimate D2E/DX2                !
 ! D34   D(13,6,12,7)           -0.0067         estimate D2E/DX2                !
 ! D35   D(12,6,13,5)         -179.8534         estimate D2E/DX2                !
 ! D36   D(12,6,13,14)          -0.0345         estimate D2E/DX2                !
 ! D37   D(16,7,12,4)         -179.9275         estimate D2E/DX2                !
 ! D38   D(16,7,12,6)            0.1176         estimate D2E/DX2                !
 ! D39   D(12,7,16,14)          -0.1945         estimate D2E/DX2                !
 ! D40   D(12,7,16,32)         179.8709         estimate D2E/DX2                !
 ! D41   D(10,8,9,11)          -38.6902         estimate D2E/DX2                !
 ! D42   D(10,8,9,24)           78.3261         estimate D2E/DX2                !
 ! D43   D(10,8,9,25)         -159.9122         estimate D2E/DX2                !
 ! D44   D(22,8,9,11)           78.25           estimate D2E/DX2                !
 ! D45   D(22,8,9,24)         -164.7338         estimate D2E/DX2                !
 ! D46   D(22,8,9,25)          -42.9721         estimate D2E/DX2                !
 ! D47   D(23,8,9,11)         -159.9789         estimate D2E/DX2                !
 ! D48   D(23,8,9,24)          -42.9626         estimate D2E/DX2                !
 ! D49   D(23,8,9,25)           78.7991         estimate D2E/DX2                !
 ! D50   D(9,8,10,4)            30.2318         estimate D2E/DX2                !
 ! D51   D(9,8,10,26)          149.3607         estimate D2E/DX2                !
 ! D52   D(9,8,10,27)          -87.7979         estimate D2E/DX2                !
 ! D53   D(22,8,10,4)          -86.696          estimate D2E/DX2                !
 ! D54   D(22,8,10,26)          32.4329         estimate D2E/DX2                !
 ! D55   D(22,8,10,27)         155.2743         estimate D2E/DX2                !
 ! D56   D(23,8,10,4)          152.0516         estimate D2E/DX2                !
 ! D57   D(23,8,10,26)         -88.8195         estimate D2E/DX2                !
 ! D58   D(23,8,10,27)          34.0219         estimate D2E/DX2                !
 ! D59   D(8,9,11,4)            31.3111         estimate D2E/DX2                !
 ! D60   D(8,9,11,28)          150.3251         estimate D2E/DX2                !
 ! D61   D(8,9,11,29)          -86.522          estimate D2E/DX2                !
 ! D62   D(24,9,11,4)          -85.7042         estimate D2E/DX2                !
 ! D63   D(24,9,11,28)          33.3097         estimate D2E/DX2                !
 ! D64   D(24,9,11,29)         156.4626         estimate D2E/DX2                !
 ! D65   D(25,9,11,4)          153.0081         estimate D2E/DX2                !
 ! D66   D(25,9,11,28)         -87.9779         estimate D2E/DX2                !
 ! D67   D(25,9,11,29)          35.1749         estimate D2E/DX2                !
 ! D68   D(5,13,14,16)         179.7823         estimate D2E/DX2                !
 ! D69   D(5,13,14,18)          -0.2244         estimate D2E/DX2                !
 ! D70   D(6,13,14,16)          -0.0344         estimate D2E/DX2                !
 ! D71   D(6,13,14,18)         179.959          estimate D2E/DX2                !
 ! D72   D(13,14,16,7)           0.1574         estimate D2E/DX2                !
 ! D73   D(13,14,16,32)       -179.9075         estimate D2E/DX2                !
 ! D74   D(18,14,16,7)        -179.8362         estimate D2E/DX2                !
 ! D75   D(18,14,16,32)          0.0989         estimate D2E/DX2                !
 ! D76   D(13,14,18,1)        -179.9582         estimate D2E/DX2                !
 ! D77   D(13,14,18,19)          0.0437         estimate D2E/DX2                !
 ! D78   D(16,14,18,1)           0.0348         estimate D2E/DX2                !
 ! D79   D(16,14,18,19)       -179.9632         estimate D2E/DX2                !
 ! D80   D(5,15,20,34)         -58.3223         estimate D2E/DX2                !
 ! D81   D(5,15,20,35)          62.1428         estimate D2E/DX2                !
 ! D82   D(5,15,20,36)        -178.4978         estimate D2E/DX2                !
 ! D83   D(30,15,20,34)       -176.8148         estimate D2E/DX2                !
 ! D84   D(30,15,20,35)        -56.3497         estimate D2E/DX2                !
 ! D85   D(30,15,20,36)         63.0097         estimate D2E/DX2                !
 ! D86   D(31,15,20,34)         61.0443         estimate D2E/DX2                !
 ! D87   D(31,15,20,35)       -178.4906         estimate D2E/DX2                !
 ! D88   D(31,15,20,36)        -59.1312         estimate D2E/DX2                !
 ! D89   D(5,17,19,18)           0.2523         estimate D2E/DX2                !
 ! D90   D(5,17,19,21)        -179.5989         estimate D2E/DX2                !
 ! D91   D(33,17,19,18)        179.8327         estimate D2E/DX2                !
 ! D92   D(33,17,19,21)         -0.0185         estimate D2E/DX2                !
 ! D93   D(1,18,19,17)         179.9553         estimate D2E/DX2                !
 ! D94   D(1,18,19,21)          -0.2117         estimate D2E/DX2                !
 ! D95   D(14,18,19,17)         -0.0468         estimate D2E/DX2                !
 ! D96   D(14,18,19,21)        179.7862         estimate D2E/DX2                !
 ! D97   D(17,19,21,2)         179.8878         estimate D2E/DX2                !
 ! D98   D(17,19,21,3)          -0.1155         estimate D2E/DX2                !
 ! D99   D(18,19,21,2)           0.0444         estimate D2E/DX2                !
 ! D100  D(18,19,21,3)        -179.9588         estimate D2E/DX2                !
 --------------------------------------------------------------------------------
 Trust Radius=3.00D-01 FncErr=1.00D-07 GrdErr=1.00D-06
 Number of steps in this run=    218 maximum allowed number of steps=    222.
 GradGradGradGradGradGradGradGradGradGradGradGradGradGradGradGradGradGrad

                          Input orientation:                          
 ---------------------------------------------------------------------
 Center     Atomic      Atomic             Coordinates (Angstroms)
 Number     Number       Type             X           Y           Z
 ---------------------------------------------------------------------
      1          8           0       -2.635888   -2.486210    0.235682
      2          8           0       -5.087158   -1.301599    0.063005
      3          8           0       -5.177334    0.959096   -0.234074
      4          7           0        3.229337   -0.337803   -0.026348
      5          7           0       -1.104898    1.340659   -0.269453
      6          7           0        1.079785    0.514068   -0.148322
      7          7           0        1.489078   -1.858773    0.168067
      8          6           0        5.324625    0.755354    0.121236
      9          6           0        5.545027   -0.714314   -0.328352
     10          6           0        3.829655    1.006656   -0.193920
     11          6           0        4.237404   -1.420655    0.102900
     12          6           0        1.903356   -0.557095   -0.003123
     13          6           0       -0.236341    0.261630   -0.119855
     14          6           0       -0.772659   -1.025695    0.048121
     15          6           0       -0.557031    2.719506   -0.412861
     16          6           0        0.171068   -2.054163    0.186620
     17          6           0       -2.448657    1.113503   -0.239700
     18          6           0       -2.217924   -1.322320    0.082827
     19          6           0       -3.035031   -0.110453   -0.080352
     20          6           0       -0.205467    3.329515    0.954617
     21          6           0       -4.505345   -0.070498   -0.094839
     22          1           0        5.493700    0.840253    1.199863
     23          1           0        5.977570    1.460320   -0.398312
     24          1           0        5.646278   -0.756575   -1.417989
     25          1           0        6.426734   -1.168533    0.129320
     26          1           0        3.357950    1.721002    0.484456
     27          1           0        3.688394    1.358657   -1.222985
     28          1           0        3.964678   -2.267081   -0.528843
     29          1           0        4.290672   -1.765228    1.142099
     30          1           0        0.337323    2.642368   -1.031747
     31          1           0       -1.315753    3.311922   -0.930397
     32          1           0       -0.200592   -3.064714    0.317071
     33          1           0       -3.094255    1.975855   -0.358883
     34          1           0       -1.085461    3.359561    1.604450
     35          1           0        0.573011    2.726175    1.427973
     36          1           0        0.168784    4.350260    0.820841
     37          1           0       -6.075181   -1.167435    0.038658
 ---------------------------------------------------------------------
                    Distance matrix (angstroms):
                    1          2          3          4          5
     1  O    0.000000
     2  O    2.727975   0.000000
     3  O    4.306942   2.281914   0.000000
     4  N    6.251814   8.372633   8.508655   0.000000
     5  N    4.152592   4.790663   4.090425   4.654238   0.000000
     6  N    4.791174   6.432145   6.273511   2.315413   2.338967
     7  N    4.172960   6.600633   7.248666   2.319407   4.142041
     8  C    8.595964  10.613184  10.509943   2.367912   6.467920
     9  C    8.389584  10.655582  10.852567   2.365457   6.960452
    10  C    7.361244   9.214315   9.007204   1.481902   4.946421
    11  C    6.956665   9.325407   9.716690   1.485083   6.025255
    12  C    4.937940   7.030359   7.244884   1.344193   3.566790
    13  C    3.665359   5.099760   4.991284   3.518379   1.393224
    14  C    2.374849   4.323337   4.839441   4.061368   2.410574
    15  C    5.642848   6.076001   4.947546   4.881917   1.490618
    16  C    2.840435   5.313245   6.153220   3.513439   3.655258
    17  C    3.635791   3.589712   2.733048   5.864420   1.363148
    18  C    1.246073   2.869377   3.750119   5.536591   2.907643
    19  C    2.429694   2.377100   2.399381   6.268725   2.422168
    20  C    6.344011   6.787717   5.634832   5.119511   2.502573
    21  C    3.072422   1.370777   1.237344   7.739603   3.685769
    22  H    8.836583  10.855162  10.767603   2.831740   6.778701
    23  H    9.495720  11.413554  11.167367   3.305206   7.084651
    24  H    8.620936  10.848827  11.022511   2.820220   7.162116
    25  H    9.158532  11.514852  11.803104   3.307218   7.948619
    26  H    7.327252   8.979621   8.599294   2.125121   4.542032
    27  H    7.543690   9.259646   8.929654   2.126182   4.887248
    28  H    6.648307   9.122400   9.699046   2.124933   6.227654
    29  H    7.022723   9.451089   9.947810   2.128202   6.383666
    30  H    6.062068   6.795466   5.820750   4.272703   2.086993
    31  H    6.059772   6.041102   4.575201   5.898783   2.089781
    32  H    2.504388   5.201120   6.423610   4.395269   4.535316
    33  H    4.524780   3.858932   2.321335   6.741766   2.090218
    34  H    6.200838   6.333723   5.087812   5.911640   2.754606
    35  H    6.235988   7.079803   6.241109   4.308025   2.759762
    36  H    7.412551   7.755176   6.418241   5.662389   3.445099
    37  H    3.688729   0.997388   2.324359   9.341658   5.575767
                    6          7          8          9         10
     6  N    0.000000
     7  N    2.428579   0.000000
     8  C    4.260229   4.641904   0.000000
     9  C    4.634622   4.243459   1.552621   0.000000
    10  C    2.794013   3.717529   1.548358   2.433580   0.000000
    11  C    3.711714   2.783791   2.432571   1.547506   2.479153
    12  C    1.358949   1.376698   3.666479   3.659544   2.488443
    13  C    1.340419   2.748832   5.588044   5.866869   4.134353
    14  C    2.416818   2.413268   6.352508   6.336548   5.036897
    15  C    2.759185   5.048235   6.223908   7.002383   4.714319
    16  C    2.744770   1.332543   5.869992   5.562358   4.785257
    17  C    3.580164   4.950400   7.789895   8.200473   6.279388
    18  C    3.781618   3.746587   7.823570   7.797573   6.486442
    19  C    4.162494   4.856531   8.406789   8.604856   6.955914
    20  C    3.285588   5.514388   6.156521   7.146100   4.795521
    21  C    5.615893   6.261003   9.866967  10.073679   8.404898
    22  H    4.626732   4.938253   1.095094   2.180540   2.177009
    23  H    4.994616   5.611036   1.092357   2.218337   2.204796
    24  H    4.907081   4.583964   2.181422   1.095147   2.812018
    25  H    5.612316   4.985818   2.217217   1.092330   3.403050
    26  H    2.654644   4.050626   2.220859   3.372644   1.092241
    27  H    2.945008   4.138100   2.201853   2.923126   1.096738
    28  H    4.025195   2.604034   3.377450   2.224586   3.293594
    29  H    4.143691   2.967561   2.909391   2.200012   3.111402
    30  H    2.421023   4.798579   5.455582   6.235564   3.946377
    31  H    3.765399   5.984128   7.192815   7.977677   5.686112
    32  H    3.829313   2.081221   6.720067   6.241241   5.751526
    33  H    4.427614   5.999082   8.520427   9.048488   6.993360
    34  H    3.982126   5.993535   7.076088   8.018451   5.738350
    35  H    2.763140   4.842343   5.307498   6.296236   4.024054
    36  H    4.060242   6.381331   6.324199   7.474928   5.060771
    37  H    7.352275   7.596888  11.561121  11.634829  10.143300
                   11         12         13         14         15
    11  C    0.000000
    12  C    2.490935   0.000000
    13  C    4.784778   2.293957   0.000000
    14  C    5.025905   2.717217   1.404656   0.000000
    15  C    6.355592   4.117949   2.495967   3.779620   0.000000
    16  C    4.116240   2.297398   2.371246   1.402693   4.865945
    17  C    7.158404   4.667642   2.373688   2.732760   2.487464
    18  C    6.456108   4.192601   2.544926   1.475799   4.397798
    19  C    7.391787   4.959145   2.823592   2.443870   3.776204
    20  C    6.559622   4.524394   3.250748   4.484562   1.538085
    21  C    8.848598   6.427802   4.281977   3.855617   4.845043
    22  H    2.809504   4.036128   5.908454   6.638940   6.537876
    23  H    3.402853   4.563481   6.334594   7.207299   6.654831
    24  H    2.176932   4.006383   6.109591   6.589739   7.181536
    25  H    2.203958   4.566437   6.819386   7.201268   8.011478
    26  H    3.284666   2.746507   3.926052   4.979625   4.138752
    27  H    3.127932   2.888690   4.221837   5.215538   4.531208
    28  H    1.090833   2.729374   4.920387   4.931155   6.732411
    29  H    1.096131   2.910395   5.118059   5.232687   6.784612
    30  H    5.745103   3.707707   2.613150   3.981565   1.090339
    31  H    7.369026   5.117792   3.335624   4.479662   1.092913
    32  H    4.737574   3.288963   3.355108   2.134758   5.840980
    33  H    8.093377   5.614135   3.341164   3.816381   2.644511
    34  H    7.310131   5.182423   3.645738   4.663740   2.181388
    35  H    5.690325   3.820696   3.020729   4.217979   2.160025
    36  H    7.097363   5.269705   4.214965   5.512196   2.169836
    37  H   10.315893   8.001957   6.013269   5.304425   6.764773
                   16         17         18         19         20
    16  C    0.000000
    17  C    4.132652   0.000000
    18  C    2.500730   2.467893   0.000000
    19  C    3.758770   1.366490   1.470684   0.000000
    20  C    5.451200   3.371795   5.142915   4.572852   0.000000
    21  C    5.087532   2.377564   2.613603   1.470928   5.581254
    22  H    6.142859   8.076388   8.086633   8.676523   6.223912
    23  H    6.812430   8.434853   8.668374   9.153983   6.599565
    24  H    5.851190   8.391277   8.026094   8.807490   7.521191
    25  H    6.318305   9.171501   8.646151   9.523051   8.056031
    26  H    4.949424   5.883038   6.365020   6.674087   3.937805
    27  H    5.099599   6.220156   6.616447   6.976270   4.877334
    28  H    3.866355   7.255537   6.284209   7.338127   7.135310
    29  H    4.238816   7.457548   6.609088   7.609112   6.797560
    30  H    4.854839   3.275126   4.846681   4.456001   2.170814
    31  H    5.679193   2.567797   4.828740   3.923155   2.187767
    32  H    1.084602   4.777163   2.675899   4.113350   6.425936
    33  H    5.215453   1.083814   3.441079   2.105651   3.450040
    34  H    5.735635   3.209980   5.051516   4.322080   1.094338
    35  H    4.955214   3.809504   5.097945   4.831094   1.092755
    36  H    6.435750   4.295619   6.198323   5.565478   1.095390
    37  H    6.310611   4.293232   3.860618   3.220852   7.450844
                   21         22         23         24         25
    21  C    0.000000
    22  H   10.123568   0.000000
    23  H   10.598444   1.781229   0.000000
    24  H   10.260452   3.070226   2.462543   0.000000
    25  H   10.989371   2.460048   2.718642   1.781288   0.000000
    26  H    8.085571   2.418461   2.776624   3.872225   4.230008
    27  H    8.393602   3.065626   2.435313   2.888865   3.964079
    28  H    8.760972   3.870640   4.238194   2.428989   2.775195
    29  H    9.042789   2.870391   3.952550   3.067425   2.438140
    30  H    5.629287   5.900502   5.797488   6.315616   7.276810
    31  H    4.723602   7.550881   7.543481   8.078384   9.007973
    32  H    5.259838   6.960823   7.691384   6.521030   6.895811
    33  H    2.499691   8.801832   9.086547   9.218720  10.038663
    34  H    5.133078   7.056625   7.583177   8.449498   8.894533
    35  H    5.994167   5.274648   5.843540   6.779903   7.149918
    36  H    6.498388   6.388939   6.601521   7.816333   8.372408
    37  H    1.919760  11.799077  12.343616  11.818766  12.502244
                   26         27         28         29         30
    26  H    0.000000
    27  H    1.776469   0.000000
    28  H    4.159291   3.701911   0.000000
    29  H    3.668278   3.964217   1.774873   0.000000
    30  H    3.503138   3.593628   6.124811   6.307256   0.000000
    31  H    5.135790   5.379808   7.692170   7.842493   1.786403
    32  H    5.966097   6.087873   4.324496   4.747714   5.888926
    33  H    6.512075   6.865270   8.237714   8.413429   3.559875
    34  H    4.866535   5.898110   7.855822   7.441776   3.080295
    35  H    3.107488   4.313154   6.345482   5.837416   2.472407
    36  H    4.146918   5.051195   7.747236   7.381894   2.525348
    37  H    9.875513  10.163675  10.115832  10.441544   7.535289
                   31         32         33         34         35
    31  H    0.000000
    32  H    6.592514   0.000000
    33  H    2.296687   5.851285   0.000000
    34  H    2.545732   6.611478   3.131225   0.000000
    35  H    3.077733   5.947013   4.147852   1.784055   0.000000
    36  H    2.519689   7.441241   4.204399   1.780072   1.780354
    37  H    6.607258   6.179642   4.350199   6.916842   7.828720
                   36         37
    36  H    0.000000
    37  H    8.369221   0.000000
 Stoichiometry    C14H16N4O3
 Framework group  C1[X(C14H16N4O3)]
 Deg. of freedom   105
 Full point group                 C1      NOp   1
 Largest Abelian subgroup         C1      NOp   1
 Largest concise Abelian subgroup C1      NOp   1
                         Standard orientation:                         
 ---------------------------------------------------------------------
 Center     Atomic      Atomic             Coordinates (Angstroms)
 Number     Number       Type             X           Y           Z
 ---------------------------------------------------------------------
      1          8           0       -2.635888   -2.486210    0.235682
      2          8           0       -5.087158   -1.301599    0.063005
      3          8           0       -5.177334    0.959096   -0.234074
      4          7           0        3.229337   -0.337803   -0.026348
      5          7           0       -1.104898    1.340659   -0.269453
      6          7           0        1.079785    0.514068   -0.148322
      7          7           0        1.489078   -1.858773    0.168067
      8          6           0        5.324625    0.755354    0.121236
      9          6           0        5.545027   -0.714314   -0.328352
     10          6           0        3.829655    1.006656   -0.193920
     11          6           0        4.237404   -1.420655    0.102900
     12          6           0        1.903356   -0.557095   -0.003123
     13          6           0       -0.236341    0.261630   -0.119855
     14          6           0       -0.772659   -1.025695    0.048121
     15          6           0       -0.557031    2.719506   -0.412861
     16          6           0        0.171068   -2.054163    0.186620
     17          6           0       -2.448657    1.113503   -0.239700
     18          6           0       -2.217924   -1.322320    0.082827
     19          6           0       -3.035031   -0.110453   -0.080352
     20          6           0       -0.205467    3.329515    0.954617
     21          6           0       -4.505345   -0.070498   -0.094839
     22          1           0        5.493700    0.840253    1.199863
     23          1           0        5.977570    1.460320   -0.398312
     24          1           0        5.646278   -0.756575   -1.417989
     25          1           0        6.426734   -1.168533    0.129320
     26          1           0        3.357950    1.721002    0.484456
     27          1           0        3.688394    1.358657   -1.222985
     28          1           0        3.964678   -2.267081   -0.528843
     29          1           0        4.290672   -1.765228    1.142099
     30          1           0        0.337323    2.642368   -1.031747
     31          1           0       -1.315753    3.311922   -0.930397
     32          1           0       -0.200592   -3.064714    0.317071
     33          1           0       -3.094255    1.975855   -0.358883
     34          1           0       -1.085461    3.359561    1.604450
     35          1           0        0.573011    2.726175    1.427973
     36          1           0        0.168784    4.350260    0.820841
     37          1           0       -6.075181   -1.167435    0.038658
 ---------------------------------------------------------------------
 Rotational constants (GHZ):      0.7045338      0.1636678      0.1352756
 Standard basis: LANL2DZ (5D, 7F)
 There are   221 symmetry adapted cartesian basis functions of A   symmetry.
 There are   221 symmetry adapted basis functions of A   symmetry.
   221 basis functions,   589 primitive gaussians,   221 cartesian basis functions
    76 alpha electrons       76 beta electrons
       nuclear repulsion energy      1659.2639325735 Hartrees.
 NAtoms=   37 NActive=   37 NUniq=   37 SFac= 1.00D+00 NAtFMM=   60 NAOKFM=F Big=F
 Integral buffers will be    131072 words long.
 Raffenetti 2 integral format.
 Two-electron integral symmetry is turned on.
 One-electron integrals computed using PRISM.
 PrsmSu:  requested number of processors reduced to:   9 ShMem   1 Linda.
   1 Symmetry operations used in ECPInt.
 ECPInt:  NShTT=    9453 NPrTT=   72646 LenC2=    8601 LenP2D=   37724.
 LDataN:  DoStor=T MaxTD1= 2 Len=   12
 Number of processors reduced to   9 by ecpmxn.
 NBasis=   221 RedAO= T EigKep=  7.60D-04  NBF=   221
 NBsUse=   221 1.00D-06 EigRej= -1.00D+00 NBFU=   221
 ExpMin= 1.15D-01 ExpMax= 7.82D+03 ExpMxC= 2.73D+02 IAcc=3 IRadAn=         5 AccDes= 0.00D+00
 Harris functional with IExCor= 1009 and IRadAn=       5 diagonalized for initial guess.
 HarFok:  IExCor= 1009 AccDes= 0.00D+00 IRadAn=         5 IDoV= 1 UseB2=F ITyADJ=14
 ICtDFT=  3500011 ScaDFX=  1.000000  1.000000  1.000000  1.000000
 FoFCou: FMM=F IPFlag=           0 FMFlag=      100000 FMFlg1=           0
         NFxFlg=           0 DoJE=T BraDBF=F KetDBF=T FulRan=T
         wScrn=  0.000000 ICntrl=     500 IOpCl=  0 I1Cent=   200000004 NGrid=           0
         NMat0=    1 NMatS0=      1 NMatT0=    0 NMatD0=    1 NMtDS0=    0 NMtDT0=    0
 Petite list used in FoFCou.
 Requested convergence on RMS density matrix=1.00D-08 within 128 cycles.
 Requested convergence on MAX density matrix=1.00D-06.
 Requested convergence on             energy=1.00D-06.
 No special actions if energy rises.
 Integral accuracy reduced to 1.0D-05 until final iterations.
 Initial convergence to 1.0D-05 achieved.  Increase integral accuracy.
 SCF Done:  E(RM06) =  -987.046621407     A.U. after   16 cycles
            NFock= 16  Conv=0.84D-08     -V/T= 2.0048

 **********************************************************************

            Population analysis using the SCF density.

 **********************************************************************

 Orbital symmetries:
       Occupied  (A) (A) (A) (A) (A) (A) (A) (A) (A) (A) (A) (A)
                 (A) (A) (A) (A) (A) (A) (A) (A) (A) (A) (A) (A)
                 (A) (A) (A) (A) (A) (A) (A) (A) (A) (A) (A) (A)
                 (A) (A) (A) (A) (A) (A) (A) (A) (A) (A) (A) (A)
                 (A) (A) (A) (A) (A) (A) (A) (A) (A) (A) (A) (A)
                 (A) (A) (A) (A) (A) (A) (A) (A) (A) (A) (A) (A)
                 (A) (A) (A) (A)
       Virtual   (A) (A) (A) (A) (A) (A) (A) (A) (A) (A) (A) (A)
                 (A) (A) (A) (A) (A) (A) (A) (A) (A) (A) (A) (A)
                 (A) (A) (A) (A) (A) (A) (A) (A) (A) (A) (A) (A)
                 (A) (A) (A) (A) (A) (A) (A) (A) (A) (A) (A) (A)
                 (A) (A) (A) (A) (A) (A) (A) (A) (A) (A) (A) (A)
                 (A) (A) (A) (A) (A) (A) (A) (A) (A) (A) (A) (A)
                 (A) (A) (A) (A) (A) (A) (A) (A) (A) (A) (A) (A)
                 (A) (A) (A) (A) (A) (A) (A) (A) (A) (A) (A) (A)
                 (A) (A) (A) (A) (A) (A) (A) (A) (A) (A) (A) (A)
                 (A) (A) (A) (A) (A) (A) (A) (A) (A) (A) (A) (A)
                 (A) (A) (A) (A) (A) (A) (A) (A) (A) (A) (A) (A)
                 (A) (A) (A) (A) (A) (A) (A) (A) (A) (A) (A) (A)
                 (A)
 The electronic state is 1-A.
 Alpha  occ. eigenvalues --  -19.26202 -19.21741 -19.18928 -14.48231 -14.43900
 Alpha  occ. eigenvalues --  -14.41705 -14.41292 -10.40259 -10.37647 -10.36650
 Alpha  occ. eigenvalues --  -10.34502 -10.33622 -10.31279 -10.31272 -10.29775
 Alpha  occ. eigenvalues --  -10.29278 -10.27594 -10.27000 -10.26524 -10.26339
 Alpha  occ. eigenvalues --  -10.25534  -1.13467  -1.05816  -1.04793  -1.04377
 Alpha  occ. eigenvalues --   -1.02402  -0.96603  -0.92556  -0.85064  -0.83836
 Alpha  occ. eigenvalues --   -0.79975  -0.78366  -0.76287  -0.72068  -0.70300
 Alpha  occ. eigenvalues --   -0.68209  -0.65084  -0.63825  -0.62800  -0.61190
 Alpha  occ. eigenvalues --   -0.57925  -0.56703  -0.54662  -0.53488  -0.52529
 Alpha  occ. eigenvalues --   -0.50912  -0.50149  -0.49157  -0.48296  -0.47188
 Alpha  occ. eigenvalues --   -0.46668  -0.45529  -0.45258  -0.45087  -0.44860
 Alpha  occ. eigenvalues --   -0.42965  -0.42155  -0.41984  -0.40925  -0.40287
 Alpha  occ. eigenvalues --   -0.40091  -0.39344  -0.38574  -0.37988  -0.37520
 Alpha  occ. eigenvalues --   -0.37311  -0.35710  -0.33698  -0.33118  -0.32977
 Alpha  occ. eigenvalues --   -0.32327  -0.29337  -0.26500  -0.25489  -0.24531
 Alpha  occ. eigenvalues --   -0.23942
 Alpha virt. eigenvalues --   -0.06565  -0.04100  -0.01080   0.02607   0.09074
 Alpha virt. eigenvalues --    0.09989   0.10705   0.10860   0.11268   0.11930
 Alpha virt. eigenvalues --    0.12332   0.12812   0.13802   0.14987   0.15379
 Alpha virt. eigenvalues --    0.16049   0.16699   0.17198   0.17452   0.17761
 Alpha virt. eigenvalues --    0.18495   0.19051   0.19511   0.20315   0.20592
 Alpha virt. eigenvalues --    0.21220   0.21852   0.22407   0.22929   0.23502
 Alpha virt. eigenvalues --    0.23629   0.24313   0.24985   0.25183   0.25704
 Alpha virt. eigenvalues --    0.26410   0.27219   0.27804   0.28239   0.29773
 Alpha virt. eigenvalues --    0.30063   0.30155   0.30715   0.30759   0.31810
 Alpha virt. eigenvalues --    0.32026   0.32706   0.33370   0.34071   0.34561
 Alpha virt. eigenvalues --    0.34885   0.36055   0.36317   0.37287   0.37661
 Alpha virt. eigenvalues --    0.38599   0.38987   0.39350   0.40073   0.40206
 Alpha virt. eigenvalues --    0.41162   0.41774   0.41907   0.42596   0.44025
 Alpha virt. eigenvalues --    0.45153   0.46411   0.47207   0.47365   0.47830
 Alpha virt. eigenvalues --    0.49456   0.50298   0.50995   0.51907   0.52756
 Alpha virt. eigenvalues --    0.54250   0.54924   0.55514   0.56778   0.57090
 Alpha virt. eigenvalues --    0.57547   0.60690   0.64493   0.65075   0.65998
 Alpha virt. eigenvalues --    0.67396   0.68122   0.69337   0.69813   0.71027
 Alpha virt. eigenvalues --    0.73323   0.74350   0.75055   0.78016   0.78240
 Alpha virt. eigenvalues --    0.80287   0.80619   0.82826   0.85108   0.87410
 Alpha virt. eigenvalues --    0.88337   0.89798   0.90912   0.91513   0.94653
 Alpha virt. eigenvalues --    0.97227   0.98322   0.99352   1.01083   1.02471
 Alpha virt. eigenvalues --    1.03737   1.05630   1.06422   1.07054   1.07662
 Alpha virt. eigenvalues --    1.08863   1.09287   1.10811   1.11158   1.12661
 Alpha virt. eigenvalues --    1.14870   1.15460   1.16229   1.18651   1.19515
 Alpha virt. eigenvalues --    1.21267   1.22284   1.26346   1.27694   1.29453
 Alpha virt. eigenvalues --    1.33308   1.42187   1.43379   1.47461   1.48451
 Alpha virt. eigenvalues --    1.51326   1.53340   1.55093   1.68087   1.76437
 Alpha virt. eigenvalues --    1.80768   1.85319   1.87866   1.97943   2.00913
          Condensed to atoms (all electrons):
               1          2          3          4          5          6
     1  O    7.782604  -0.006626   0.000003   0.000000   0.000159  -0.000141
     2  O   -0.006626   8.081714  -0.083445   0.000000  -0.000011   0.000000
     3  O    0.000003  -0.083445   7.886319   0.000000   0.000696   0.000000
     4  N    0.000000   0.000000   0.000000   6.881841   0.000506  -0.093087
     5  N    0.000159  -0.000011   0.000696   0.000506   6.772559  -0.075998
     6  N   -0.000141   0.000000   0.000000  -0.093087  -0.075998   6.450568
     7  N    0.000282   0.000000   0.000000  -0.082811  -0.001068  -0.039470
     8  C    0.000000   0.000000   0.000000  -0.073808  -0.000003  -0.000205
     9  C    0.000000   0.000000   0.000000  -0.072766   0.000000   0.000001
    10  C    0.000000   0.000000   0.000000   0.256713  -0.000278   0.016761
    11  C    0.000000   0.000000   0.000000   0.254156  -0.000007   0.000309
    12  C   -0.000074   0.000000   0.000000   0.279745  -0.008972   0.470114
    13  C   -0.000980  -0.000083  -0.000101   0.002831   0.181745   0.474430
    14  C   -0.086724  -0.001059  -0.000382  -0.005467  -0.065791  -0.025041
    15  C    0.000006   0.000002   0.000235   0.000215   0.233492   0.002268
    16  C   -0.012397   0.000042   0.000005   0.000289   0.003846  -0.044778
    17  C    0.001651  -0.004923   0.004060   0.000068   0.397792  -0.006697
    18  C    0.663889   0.001802  -0.003504  -0.000160  -0.002404  -0.001899
    19  C   -0.063161  -0.031720  -0.059072  -0.000027  -0.064328  -0.003331
    20  C   -0.000001   0.000000   0.000001   0.000001  -0.060696  -0.006227
    21  C   -0.007750   0.251310   0.585069   0.000000   0.008103  -0.000021
    22  H    0.000000   0.000000   0.000000  -0.003269   0.000000   0.000009
    23  H    0.000000   0.000000   0.000000   0.003162   0.000000   0.000016
    24  H    0.000000   0.000000   0.000000  -0.003234   0.000000   0.000009
    25  H    0.000000   0.000000   0.000000   0.003213   0.000000   0.000000
    26  H    0.000000   0.000000   0.000000  -0.038438   0.000016   0.002396
    27  H    0.000000   0.000000   0.000000  -0.048273   0.000008  -0.000087
    28  H    0.000000   0.000000   0.000000  -0.035678   0.000000  -0.000081
    29  H    0.000000   0.000000   0.000000  -0.047890   0.000000  -0.000047
    30  H    0.000000   0.000000   0.000000  -0.000074  -0.039129   0.012223
    31  H    0.000000   0.000000  -0.000004   0.000000  -0.039843  -0.000210
    32  H    0.009265   0.000001   0.000000   0.000025  -0.000177  -0.001260
    33  H   -0.000058   0.000335   0.012812   0.000000  -0.037494  -0.000045
    34  H    0.000000   0.000000   0.000001  -0.000001  -0.003476   0.000203
    35  H    0.000000   0.000000   0.000000  -0.000031  -0.003980   0.001365
    36  H    0.000000   0.000000   0.000000   0.000000   0.004410  -0.000120
    37  H    0.000377   0.245546   0.003133   0.000000   0.000002   0.000000
               7          8          9         10         11         12
     1  O    0.000282   0.000000   0.000000   0.000000   0.000000  -0.000074
     2  O    0.000000   0.000000   0.000000   0.000000   0.000000   0.000000
     3  O    0.000000   0.000000   0.000000   0.000000   0.000000   0.000000
     4  N   -0.082811  -0.073808  -0.072766   0.256713   0.254156   0.279745
     5  N   -0.001068  -0.000003   0.000000  -0.000278  -0.000007  -0.008972
     6  N   -0.039470  -0.000205   0.000001   0.016761   0.000309   0.470114
     7  N    6.370845  -0.000030   0.000214   0.000475   0.013037   0.466125
     8  C   -0.000030   5.433354   0.264644   0.278499  -0.079256   0.003920
     9  C    0.000214   0.264644   5.437229  -0.082296   0.275307   0.004205
    10  C    0.000475   0.278499  -0.082296   5.260587  -0.086854  -0.032398
    11  C    0.013037  -0.079256   0.275307  -0.086854   5.256669  -0.033219
    12  C    0.466125   0.003920   0.004205  -0.032398  -0.033219   5.379244
    13  C   -0.054245  -0.000322  -0.000003  -0.002792  -0.000003  -0.281172
    14  C   -0.009401   0.000047   0.000010   0.000463   0.000088  -0.035798
    15  C    0.000156  -0.000008  -0.000001  -0.000335  -0.000001  -0.002319
    16  C    0.472571  -0.000014  -0.000180   0.000172  -0.001265  -0.232918
    17  C   -0.000499  -0.000001   0.000000  -0.000052   0.000000  -0.001282
    18  C   -0.000628   0.000000   0.000000   0.000008   0.000012  -0.004403
    19  C    0.000007   0.000000   0.000000   0.000002   0.000001  -0.001380
    20  C   -0.000075  -0.000007   0.000001   0.000015   0.000001   0.000557
    21  C    0.000006   0.000000   0.000000   0.000000   0.000000  -0.000039
    22  H    0.000004   0.390306  -0.042546  -0.037067   0.003565   0.000233
    23  H    0.000000   0.369740  -0.028348  -0.028121   0.006119  -0.000119
    24  H   -0.000001  -0.042989   0.390374   0.003331  -0.036928   0.000366
    25  H    0.000013  -0.028688   0.369340   0.006300  -0.027880  -0.000106
    26  H   -0.000069  -0.030027   0.005758   0.378873   0.002991  -0.009662
    27  H   -0.000032  -0.043347  -0.003015   0.387370   0.004045  -0.004335
    28  H    0.001963   0.005598  -0.030193   0.003228   0.381932  -0.010687
    29  H   -0.000778  -0.003610  -0.044460   0.004246   0.388781  -0.004629
    30  H    0.000010   0.000007   0.000000   0.000580   0.000002   0.001519
    31  H    0.000001   0.000000   0.000000  -0.000002   0.000000  -0.000052
    32  H   -0.035150   0.000000  -0.000001   0.000006  -0.000074   0.002097
    33  H   -0.000001   0.000000   0.000000   0.000000   0.000000  -0.000006
    34  H    0.000000   0.000000   0.000000   0.000007   0.000000   0.000023
    35  H    0.000012  -0.000002   0.000000   0.000008   0.000001  -0.000142
    36  H    0.000000   0.000000   0.000000  -0.000004   0.000000  -0.000010
    37  H    0.000000   0.000000   0.000000   0.000000   0.000000   0.000000
              13         14         15         16         17         18
     1  O   -0.000980  -0.086724   0.000006  -0.012397   0.001651   0.663889
     2  O   -0.000083  -0.001059   0.000002   0.000042  -0.004923   0.001802
     3  O   -0.000101  -0.000382   0.000235   0.000005   0.004060  -0.003504
     4  N    0.002831  -0.005467   0.000215   0.000289   0.000068  -0.000160
     5  N    0.181745  -0.065791   0.233492   0.003846   0.397792  -0.002404
     6  N    0.474430  -0.025041   0.002268  -0.044778  -0.006697  -0.001899
     7  N   -0.054245  -0.009401   0.000156   0.472571  -0.000499  -0.000628
     8  C   -0.000322   0.000047  -0.000008  -0.000014  -0.000001   0.000000
     9  C   -0.000003   0.000010  -0.000001  -0.000180   0.000000   0.000000
    10  C   -0.002792   0.000463  -0.000335   0.000172  -0.000052   0.000008
    11  C   -0.000003   0.000088  -0.000001  -0.001265   0.000000   0.000012
    12  C   -0.281172  -0.035798  -0.002319  -0.232918  -0.001282  -0.004403
    13  C    5.683138   0.187662  -0.039159  -0.083271  -0.157911  -0.042060
    14  C    0.187662   5.684302   0.002936   0.262739   0.023131   0.125965
    15  C   -0.039159   0.002936   5.229529  -0.000097  -0.042724   0.000713
    16  C   -0.083271   0.262739  -0.000097   5.698230   0.004358  -0.032569
    17  C   -0.157911   0.023131  -0.042724   0.004358   5.550124  -0.092627
    18  C   -0.042060   0.125965   0.000713  -0.032569  -0.092627   5.237197
    19  C    0.001528  -0.134033   0.002917  -0.021548   0.291375   0.008908
    20  C   -0.020801  -0.002307   0.280752  -0.000098  -0.002560   0.000096
    21  C    0.003226  -0.028519   0.000451  -0.000176  -0.015964  -0.042842
    22  H    0.000002   0.000000   0.000000   0.000003   0.000000   0.000000
    23  H    0.000002   0.000000   0.000000   0.000000   0.000000   0.000000
    24  H    0.000003   0.000000   0.000000   0.000002   0.000000   0.000000
    25  H    0.000000   0.000000   0.000000   0.000001   0.000000   0.000000
    26  H    0.000903  -0.000030   0.000040  -0.000050   0.000006   0.000000
    27  H    0.000380  -0.000046   0.000060  -0.000007   0.000003   0.000000
    28  H   -0.000058   0.000002   0.000000   0.000817   0.000000   0.000000
    29  H   -0.000014  -0.000029   0.000000   0.000414   0.000000   0.000000
    30  H   -0.006014   0.000437   0.376187   0.000018   0.002027  -0.000044
    31  H    0.006468   0.000194   0.361302   0.000020   0.000624  -0.000063
    32  H   -0.002538  -0.051794   0.000007   0.332099  -0.000195   0.003735
    33  H   -0.000972  -0.002241  -0.001732  -0.000010   0.321294   0.003534
    34  H    0.000269  -0.000032  -0.036275   0.000001   0.003899  -0.000003
    35  H    0.007014   0.000287  -0.037706   0.000043  -0.000415   0.000007
    36  H   -0.000011   0.000000  -0.028132   0.000000  -0.000012   0.000000
    37  H    0.000001   0.000065   0.000000  -0.000001  -0.000393   0.001666
              19         20         21         22         23         24
     1  O   -0.063161  -0.000001  -0.007750   0.000000   0.000000   0.000000
     2  O   -0.031720   0.000000   0.251310   0.000000   0.000000   0.000000
     3  O   -0.059072   0.000001   0.585069   0.000000   0.000000   0.000000
     4  N   -0.000027   0.000001   0.000000  -0.003269   0.003162  -0.003234
     5  N   -0.064328  -0.060696   0.008103   0.000000   0.000000   0.000000
     6  N   -0.003331  -0.006227  -0.000021   0.000009   0.000016   0.000009
     7  N    0.000007  -0.000075   0.000006   0.000004   0.000000  -0.000001
     8  C    0.000000  -0.000007   0.000000   0.390306   0.369740  -0.042989
     9  C    0.000000   0.000001   0.000000  -0.042546  -0.028348   0.390374
    10  C    0.000002   0.000015   0.000000  -0.037067  -0.028121   0.003331
    11  C    0.000001   0.000001   0.000000   0.003565   0.006119  -0.036928
    12  C   -0.001380   0.000557  -0.000039   0.000233  -0.000119   0.000366
    13  C    0.001528  -0.020801   0.003226   0.000002   0.000002   0.000003
    14  C   -0.134033  -0.002307  -0.028519   0.000000   0.000000   0.000000
    15  C    0.002917   0.280752   0.000451   0.000000   0.000000   0.000000
    16  C   -0.021548  -0.000098  -0.000176   0.000003   0.000000   0.000002
    17  C    0.291375  -0.002560  -0.015964   0.000000   0.000000   0.000000
    18  C    0.008908   0.000096  -0.042842   0.000000   0.000000   0.000000
    19  C    5.914330  -0.000132   0.065659   0.000000   0.000000   0.000000
    20  C   -0.000132   5.406842  -0.000037   0.000000   0.000000   0.000000
    21  C    0.065659  -0.000037   5.012141   0.000000   0.000000   0.000000
    22  H    0.000000   0.000000   0.000000   0.487266  -0.017095   0.002817
    23  H    0.000000   0.000000   0.000000  -0.017095   0.472430  -0.003100
    24  H    0.000000   0.000000   0.000000   0.002817  -0.003100   0.487480
    25  H    0.000000   0.000000   0.000000  -0.003065   0.000208  -0.016686
    26  H    0.000000   0.000130   0.000000  -0.003826   0.000520   0.000028
    27  H    0.000000   0.000003   0.000000   0.002840  -0.001254   0.000954
    28  H    0.000000   0.000000   0.000000   0.000028  -0.000042  -0.003472
    29  H    0.000000   0.000000   0.000000   0.001021  -0.000087   0.002802
    30  H   -0.000117  -0.035295   0.000006   0.000000   0.000000   0.000000
    31  H    0.000041  -0.042171   0.000032   0.000000   0.000000   0.000000
    32  H    0.002221  -0.000001   0.000012   0.000000   0.000000   0.000000
    33  H   -0.013471   0.000083  -0.008325   0.000000   0.000000   0.000000
    34  H   -0.000007   0.372313   0.000018   0.000000   0.000000   0.000000
    35  H   -0.000013   0.374571   0.000000   0.000000   0.000000   0.000000
    36  H    0.000003   0.370690   0.000000   0.000000   0.000000   0.000000
    37  H    0.005305   0.000000  -0.028927   0.000000   0.000000   0.000000
              25         26         27         28         29         30
     1  O    0.000000   0.000000   0.000000   0.000000   0.000000   0.000000
     2  O    0.000000   0.000000   0.000000   0.000000   0.000000   0.000000
     3  O    0.000000   0.000000   0.000000   0.000000   0.000000   0.000000
     4  N    0.003213  -0.038438  -0.048273  -0.035678  -0.047890  -0.000074
     5  N    0.000000   0.000016   0.000008   0.000000   0.000000  -0.039129
     6  N    0.000000   0.002396  -0.000087  -0.000081  -0.000047   0.012223
     7  N    0.000013  -0.000069  -0.000032   0.001963  -0.000778   0.000010
     8  C   -0.028688  -0.030027  -0.043347   0.005598  -0.003610   0.000007
     9  C    0.369340   0.005758  -0.003015  -0.030193  -0.044460   0.000000
    10  C    0.006300   0.378873   0.387370   0.003228   0.004246   0.000580
    11  C   -0.027880   0.002991   0.004045   0.381932   0.388781   0.000002
    12  C   -0.000106  -0.009662  -0.004335  -0.010687  -0.004629   0.001519
    13  C    0.000000   0.000903   0.000380  -0.000058  -0.000014  -0.006014
    14  C    0.000000  -0.000030  -0.000046   0.000002  -0.000029   0.000437
    15  C    0.000000   0.000040   0.000060   0.000000   0.000000   0.376187
    16  C    0.000001  -0.000050  -0.000007   0.000817   0.000414   0.000018
    17  C    0.000000   0.000006   0.000003   0.000000   0.000000   0.002027
    18  C    0.000000   0.000000   0.000000   0.000000   0.000000  -0.000044
    19  C    0.000000   0.000000   0.000000   0.000000   0.000000  -0.000117
    20  C    0.000000   0.000130   0.000003   0.000000   0.000000  -0.035295
    21  C    0.000000   0.000000   0.000000   0.000000   0.000000   0.000006
    22  H   -0.003065  -0.003826   0.002840   0.000028   0.001021   0.000000
    23  H    0.000208   0.000520  -0.001254  -0.000042  -0.000087   0.000000
    24  H   -0.016686   0.000028   0.000954  -0.003472   0.002802   0.000000
    25  H    0.470464  -0.000042  -0.000078   0.000422  -0.001209   0.000000
    26  H   -0.000042   0.477013  -0.024276  -0.000099   0.000176  -0.000060
    27  H   -0.000078  -0.024276   0.501898   0.000136  -0.000120   0.000003
    28  H    0.000422  -0.000099   0.000136   0.450388  -0.019896   0.000000
    29  H   -0.001209   0.000176  -0.000120  -0.019896   0.494933   0.000000
    30  H    0.000000  -0.000060   0.000003   0.000000   0.000000   0.465147
    31  H    0.000000   0.000000   0.000000   0.000000   0.000000  -0.026927
    32  H    0.000000   0.000000   0.000000   0.000010   0.000005   0.000000
    33  H    0.000000   0.000000   0.000000   0.000000   0.000000   0.000162
    34  H    0.000000   0.000001   0.000000   0.000000   0.000000   0.003016
    35  H    0.000000   0.000241  -0.000001   0.000000   0.000000  -0.003609
    36  H    0.000000  -0.000002   0.000000   0.000000   0.000000  -0.001245
    37  H    0.000000   0.000000   0.000000   0.000000   0.000000   0.000000
              31         32         33         34         35         36
     1  O    0.000000   0.009265  -0.000058   0.000000   0.000000   0.000000
     2  O    0.000000   0.000001   0.000335   0.000000   0.000000   0.000000
     3  O   -0.000004   0.000000   0.012812   0.000001   0.000000   0.000000
     4  N    0.000000   0.000025   0.000000  -0.000001  -0.000031   0.000000
     5  N   -0.039843  -0.000177  -0.037494  -0.003476  -0.003980   0.004410
     6  N   -0.000210  -0.001260  -0.000045   0.000203   0.001365  -0.000120
     7  N    0.000001  -0.035150  -0.000001   0.000000   0.000012   0.000000
     8  C    0.000000   0.000000   0.000000   0.000000  -0.000002   0.000000
     9  C    0.000000  -0.000001   0.000000   0.000000   0.000000   0.000000
    10  C   -0.000002   0.000006   0.000000   0.000007   0.000008  -0.000004
    11  C    0.000000  -0.000074   0.000000   0.000000   0.000001   0.000000
    12  C   -0.000052   0.002097  -0.000006   0.000023  -0.000142  -0.000010
    13  C    0.006468  -0.002538  -0.000972   0.000269   0.007014  -0.000011
    14  C    0.000194  -0.051794  -0.002241  -0.000032   0.000287   0.000000
    15  C    0.361302   0.000007  -0.001732  -0.036275  -0.037706  -0.028132
    16  C    0.000020   0.332099  -0.000010   0.000001   0.000043   0.000000
    17  C    0.000624  -0.000195   0.321294   0.003899  -0.000415  -0.000012
    18  C   -0.000063   0.003735   0.003534  -0.000003   0.000007   0.000000
    19  C    0.000041   0.002221  -0.013471  -0.000007  -0.000013   0.000003
    20  C   -0.042171  -0.000001   0.000083   0.372313   0.374571   0.370690
    21  C    0.000032   0.000012  -0.008325   0.000018   0.000000   0.000000
    22  H    0.000000   0.000000   0.000000   0.000000   0.000000   0.000000
    23  H    0.000000   0.000000   0.000000   0.000000   0.000000   0.000000
    24  H    0.000000   0.000000   0.000000   0.000000   0.000000   0.000000
    25  H    0.000000   0.000000   0.000000   0.000000   0.000000   0.000000
    26  H    0.000000   0.000000   0.000000   0.000001   0.000241  -0.000002
    27  H    0.000000   0.000000   0.000000   0.000000  -0.000001   0.000000
    28  H    0.000000   0.000010   0.000000   0.000000   0.000000   0.000000
    29  H    0.000000   0.000005   0.000000   0.000000   0.000000   0.000000
    30  H   -0.026927   0.000000   0.000162   0.003016  -0.003609  -0.001245
    31  H    0.529616   0.000000   0.001431  -0.003466   0.003104  -0.001209
    32  H    0.000000   0.466338   0.000000   0.000000   0.000000   0.000000
    33  H    0.001431   0.000000   0.439719  -0.000142   0.000000   0.000006
    34  H   -0.003466   0.000000  -0.000142   0.486911  -0.020324  -0.020003
    35  H    0.003104   0.000000   0.000000  -0.020324   0.458593  -0.018932
    36  H   -0.001209   0.000000   0.000006  -0.020003  -0.018932   0.477084
    37  H    0.000000   0.000000   0.000000   0.000000   0.000000   0.000000
              37
     1  O    0.000377
     2  O    0.245546
     3  O    0.003133
     4  N    0.000000
     5  N    0.000002
     6  N    0.000000
     7  N    0.000000
     8  C    0.000000
     9  C    0.000000
    10  C    0.000000
    11  C    0.000000
    12  C    0.000000
    13  C    0.000001
    14  C    0.000065
    15  C    0.000000
    16  C   -0.000001
    17  C   -0.000393
    18  C    0.001666
    19  C    0.005305
    20  C    0.000000
    21  C   -0.028927
    22  H    0.000000
    23  H    0.000000
    24  H    0.000000
    25  H    0.000000
    26  H    0.000000
    27  H    0.000000
    28  H    0.000000
    29  H    0.000000
    30  H    0.000000
    31  H    0.000000
    32  H    0.000000
    33  H    0.000000
    34  H    0.000000
    35  H    0.000000
    36  H    0.000000
    37  H    0.368341
 Mulliken charges:
               1
     1  O   -0.280325
     2  O   -0.452884
     3  O   -0.345826
     4  N   -0.177750
     5  N   -0.199681
     6  N   -0.131925
     7  N   -0.101461
     8  C   -0.443797
     9  C   -0.443272
    10  C   -0.327445
    11  C   -0.321530
    12  C    0.055575
    13  C    0.142904
    14  C    0.160366
    15  C   -0.302778
    16  C   -0.346291
    17  C   -0.274154
    18  C    0.175674
    19  C    0.100044
    20  C   -0.635649
    21  C    0.206565
    22  H    0.218775
    23  H    0.225969
    24  H    0.218243
    25  H    0.227792
    26  H    0.237488
    27  H    0.227171
    28  H    0.255683
    29  H    0.230392
    30  H    0.251171
    31  H    0.211112
    32  H    0.275370
    33  H    0.285123
    34  H    0.217067
    35  H    0.239906
    36  H    0.217488
    37  H    0.404886
 Sum of Mulliken charges =   0.00000
 Mulliken charges with hydrogens summed into heavy atoms:
               1
     1  O   -0.280325
     2  O   -0.047998
     3  O   -0.345826
     4  N   -0.177750
     5  N   -0.199681
     6  N   -0.131925
     7  N   -0.101461
     8  C    0.000947
     9  C    0.002764
    10  C    0.137214
    11  C    0.164544
    12  C    0.055575
    13  C    0.142904
    14  C    0.160366
    15  C    0.159505
    16  C   -0.070921
    17  C    0.010969
    18  C    0.175674
    19  C    0.100044
    20  C    0.038813
    21  C    0.206565
 Electronic spatial extent (au):  <R**2>=           7626.4320
 Charge=              0.0000 electrons
 Dipole moment (field-independent basis, Debye):
    X=              6.5483    Y=              5.1486    Z=             -0.4966  Tot=              8.3448
 Quadrupole moment (field-independent basis, Debye-Ang):
   XX=           -112.9589   YY=           -125.3541   ZZ=           -120.3451
   XY=             -2.5471   XZ=             -0.3266   YZ=              0.9298
 Traceless Quadrupole moment (field-independent basis, Debye-Ang):
   XX=              6.5938   YY=             -5.8014   ZZ=             -0.7924
   XY=             -2.5471   XZ=             -0.3266   YZ=              0.9298
 Octapole moment (field-independent basis, Debye-Ang**2):
  XXX=            103.7830  YYY=             60.2190  ZZZ=             -0.2160  XYY=             31.0650
  XXY=            -30.6390  XXZ=              3.4629  XZZ=             -2.3307  YZZ=              1.3173
  YYZ=             -6.3135  XYZ=             -5.2801
 Hexadecapole moment (field-independent basis, Debye-Ang**3):
 XXXX=          -6852.5591 YYYY=          -1872.1134 ZZZZ=           -225.5722 XXXY=            351.3187
 XXXZ=            -47.0079 YYYX=            -72.4771 YYYZ=             -4.0492 ZZZX=             -2.5600
 ZZZY=             -4.1324 XXYY=          -1723.2471 XXZZ=          -1301.8589 YYZZ=           -351.5025
 XXYZ=             14.1333 YYXZ=              7.0019 ZZXY=              5.8830
 N-N= 1.659263932574D+03 E-N=-5.620777913291D+03  KE= 9.823062399261D+02
 PrsmSu:  requested number of processors reduced to:   9 ShMem   1 Linda.
   1 Symmetry operations used in ECPInt.
 ECPInt:  NShTT=    9453 NPrTT=   72646 LenC2=    8601 LenP2D=   37724.
 LDataN:  DoStor=T MaxTD1= 3 Len=   28
 Number of processors reduced to  10 by ecpmxn.
 Calling FoFJK, ICntrl=      2127 FMM=F ISym2X=0 I1Cent= 0 IOpClX= 0 NMat=1 NMatS=1 NMatT=0.
 ***** Axes restored to original set *****
 -------------------------------------------------------------------
 Center     Atomic                   Forces (Hartrees/Bohr)
 Number     Number              X              Y              Z
 -------------------------------------------------------------------
      1        8          -0.002214421   -0.007990955    0.001046967
      2        8          -0.016300334    0.009973703   -0.001421257
      3        8          -0.008044240    0.007841176   -0.001081983
      4        7           0.011344337    0.001819383   -0.000258104
      5        7           0.001662896    0.006465533   -0.000631951
      6        7           0.002263834    0.001783546   -0.000628430
      7        7           0.001089605   -0.001743873    0.000588316
      8        6          -0.006383779   -0.006558781   -0.003635321
      9        6          -0.007684918    0.004234932    0.004194568
     10        6           0.006905021   -0.009173800    0.002680991
     11        6           0.003509203    0.010684702   -0.003387105
     12        6           0.000527463   -0.000644021   -0.000044668
     13        6          -0.001734462    0.003365881   -0.000011483
     14        6          -0.005306169   -0.001439228    0.000167595
     15        6          -0.002427994   -0.004208397    0.006643388
     16        6           0.001698507   -0.004385975    0.000536982
     17        6           0.006990431    0.007207979   -0.000799895
     18        6           0.004630979    0.008643543   -0.001098400
     19        6          -0.006642143   -0.006348229    0.000843565
     20        6          -0.001654896   -0.002558703   -0.007327959
     21        6           0.008605787   -0.014912823    0.002019785
     22        1           0.000691482    0.000810011    0.000499153
     23        1           0.000333692    0.000417568    0.000646012
     24        1           0.000851344   -0.000570075   -0.000539430
     25        1           0.000373594   -0.000282215   -0.000687778
     26        1          -0.001270782    0.001365837    0.000200329
     27        1          -0.001444121    0.000636241   -0.000598716
     28        1          -0.000526743   -0.001283590    0.000175440
     29        1          -0.001240683   -0.001076469    0.000631662
     30        1           0.000884134    0.001114704   -0.001489362
     31        1          -0.000306097    0.000916527   -0.001233461
     32        1           0.000768522   -0.002343002    0.000311813
     33        1          -0.000892090    0.003280745   -0.000164082
     34        1          -0.000264366    0.000217802    0.000788969
     35        1           0.000759854    0.000141981    0.001626574
     36        1          -0.000102000   -0.000482674    0.000706412
     37        1           0.010549554   -0.004918985    0.000730862
 -------------------------------------------------------------------
 Cartesian Forces:  Max     0.016300334 RMS     0.004438709

 GradGradGradGradGradGradGradGradGradGradGradGradGradGradGradGradGradGrad
 Berny optimization.
 FormGI is forming the generalized inverse of G from B-inverse, IUseBI=4.
 Internal  Forces:  Max     0.011849789 RMS     0.002435868
 Search for a local minimum.
 Step number   1 out of a maximum of  218
 All quantities printed in internal units (Hartrees-Bohrs-Radians)
 Mixed Optimization -- RFO/linear search
 Second derivative matrix not updated -- first step.
 ITU=  0
     Eigenvalues ---    0.00262   0.00415   0.00483   0.00493   0.00968
     Eigenvalues ---    0.01122   0.01151   0.01276   0.01448   0.01489
     Eigenvalues ---    0.01600   0.01731   0.01923   0.02015   0.02078
     Eigenvalues ---    0.02149   0.02181   0.02232   0.02309   0.02324
     Eigenvalues ---    0.02367   0.02430   0.02475   0.02928   0.04242
     Eigenvalues ---    0.04540   0.04903   0.05156   0.05241   0.05506
     Eigenvalues ---    0.05571   0.05725   0.05786   0.06011   0.06214
     Eigenvalues ---    0.06732   0.06761   0.08167   0.08188   0.08898
     Eigenvalues ---    0.09234   0.09714   0.11203   0.12624   0.16000
     Eigenvalues ---    0.16000   0.16000   0.16000   0.16000   0.16000
     Eigenvalues ---    0.20810   0.21698   0.22033   0.23292   0.23484
     Eigenvalues ---    0.24983   0.24996   0.24998   0.25000   0.25000
     Eigenvalues ---    0.25000   0.25000   0.25000   0.25000   0.25000
     Eigenvalues ---    0.25000   0.26387   0.26474   0.27304   0.28689
     Eigenvalues ---    0.32624   0.33382   0.33555   0.34045   0.34114
     Eigenvalues ---    0.34177   0.34197   0.34225   0.34231   0.34316
     Eigenvalues ---    0.34478   0.34496   0.34542   0.34545   0.34555
     Eigenvalues ---    0.34717   0.34773   0.34880   0.35444   0.35537
     Eigenvalues ---    0.35629   0.40667   0.43816   0.45604   0.48151
     Eigenvalues ---    0.48459   0.49767   0.50827   0.51518   0.51652
     Eigenvalues ---    0.55059   0.56276   0.58242   0.84705   0.88094
 RFO step:  Lambda=-3.39716897D-03 EMin= 2.62160891D-03
 Linear search not attempted -- first point.
 Iteration  1 RMS(Cart)=  0.02375628 RMS(Int)=  0.00015122
 Iteration  2 RMS(Cart)=  0.00022342 RMS(Int)=  0.00001032
 Iteration  3 RMS(Cart)=  0.00000002 RMS(Int)=  0.00001032
 Variable       Old X    -DE/DX   Delta X   Delta X   Delta X     New X
                                 (Linear)    (Quad)   (Total)
    R1        2.35474   0.00833   0.00000   0.00980   0.00980   2.36453
    R2        2.59039  -0.00219   0.00000  -0.00428  -0.00428   2.58611
    R3        1.88479  -0.01113   0.00000  -0.02295  -0.02295   1.86184
    R4        2.33824   0.01102   0.00000   0.01246   0.01246   2.35070
    R5        2.80039  -0.00657   0.00000  -0.01922  -0.01922   2.78117
    R6        2.80640  -0.00652   0.00000  -0.01926  -0.01927   2.78713
    R7        2.54016   0.00553   0.00000   0.00978   0.00978   2.54993
    R8        2.63281   0.00308   0.00000   0.00637   0.00636   2.63917
    R9        2.81686  -0.00559   0.00000  -0.01659  -0.01659   2.80027
   R10        2.57598   0.00049   0.00000   0.00114   0.00114   2.57711
   R11        2.56804   0.00388   0.00000   0.00708   0.00708   2.57512
   R12        2.53302   0.00557   0.00000   0.00971   0.00971   2.54274
   R13        2.60158   0.00319   0.00000   0.00616   0.00616   2.60775
   R14        2.51814   0.00366   0.00000   0.00616   0.00616   2.52430
   R15        2.93403  -0.00654   0.00000  -0.02356  -0.02356   2.91046
   R16        2.92597  -0.00649   0.00000  -0.02276  -0.02275   2.90322
   R17        2.06943   0.00066   0.00000   0.00191   0.00191   2.07134
   R18        2.06426   0.00016   0.00000   0.00045   0.00045   2.06471
   R19        2.92436  -0.00650   0.00000  -0.02269  -0.02269   2.90167
   R20        2.06953   0.00064   0.00000   0.00184   0.00184   2.07137
   R21        2.06421   0.00013   0.00000   0.00038   0.00038   2.06459
   R22        2.06404   0.00156   0.00000   0.00448   0.00448   2.06852
   R23        2.07253   0.00095   0.00000   0.00276   0.00276   2.07530
   R24        2.06137   0.00103   0.00000   0.00294   0.00294   2.06431
   R25        2.07139   0.00088   0.00000   0.00255   0.00255   2.07394
   R26        2.65442   0.00564   0.00000   0.01229   0.01228   2.66670
   R27        2.65071   0.00853   0.00000   0.01893   0.01893   2.66964
   R28        2.78886   0.00222   0.00000   0.00596   0.00596   2.79481
   R29        2.90656  -0.00509   0.00000  -0.01753  -0.01753   2.88903
   R30        2.06044   0.00149   0.00000   0.00426   0.00426   2.06470
   R31        2.06531   0.00129   0.00000   0.00371   0.00371   2.06902
   R32        2.04960   0.00196   0.00000   0.00547   0.00547   2.05507
   R33        2.58229   0.01185   0.00000   0.02315   0.02316   2.60545
   R34        2.04811   0.00316   0.00000   0.00881   0.00881   2.05693
   R35        2.77919   0.00413   0.00000   0.01173   0.01174   2.79093
   R36        2.77965   0.00513   0.00000   0.01427   0.01427   2.79393
   R37        2.06800   0.00068   0.00000   0.00197   0.00197   2.06997
   R38        2.06501   0.00117   0.00000   0.00336   0.00336   2.06836
   R39        2.06999  -0.00057   0.00000  -0.00165  -0.00165   2.06834
    A1        1.87217   0.00655   0.00000   0.04011   0.04011   1.91228
    A2        1.97837  -0.00038   0.00000  -0.00368  -0.00368   1.97470
    A3        2.15265  -0.00018   0.00000   0.00041   0.00040   2.15306
    A4        2.15213   0.00056   0.00000   0.00330   0.00330   2.15543
    A5        2.09164   0.00154   0.00000   0.00595   0.00594   2.09757
    A6        2.07504   0.00113   0.00000   0.00445   0.00442   2.07946
    A7        2.11596  -0.00267   0.00000  -0.01071  -0.01071   2.10525
    A8        2.03123   0.00200   0.00000   0.00732   0.00732   2.03855
    A9        2.02418   0.00169   0.00000   0.00588   0.00588   2.03006
   A10        1.80467  -0.00018   0.00000  -0.00018  -0.00018   1.80449
   A11        1.91419   0.00039   0.00000   0.00388   0.00388   1.91807
   A12        1.96959   0.00008   0.00000   0.00198   0.00198   1.97156
   A13        1.91449   0.00010   0.00000   0.00225   0.00225   1.91674
   A14        1.95582   0.00017   0.00000   0.00090   0.00089   1.95671
   A15        1.90302  -0.00053   0.00000  -0.00812  -0.00812   1.89491
[...]
    12  C    0.464310   0.004010   0.004635  -0.032207  -0.031333   5.360609
    13  C   -0.053121  -0.000315  -0.000006  -0.002893   0.000070  -0.274525
    14  C   -0.010294   0.000046   0.000012   0.000448   0.000121  -0.037249
    15  C    0.000106  -0.000012  -0.000001  -0.000319  -0.000002  -0.001789
    16  C    0.473628  -0.000016  -0.000171   0.000223  -0.001654  -0.225240
    17  C   -0.000451  -0.000001   0.000000  -0.000051   0.000000  -0.001165
    18  C   -0.000382   0.000000   0.000000   0.000007   0.000012  -0.004181
    19  C   -0.000022   0.000000   0.000000   0.000002   0.000001  -0.001314
    20  C   -0.000055  -0.000002   0.000000   0.000042   0.000000   0.000321
    21  C    0.000006   0.000000   0.000000   0.000000   0.000000  -0.000036
    22  H    0.000005   0.391550  -0.043252  -0.037489   0.003776   0.000225
    23  H    0.000000   0.370455  -0.028319  -0.028187   0.006254  -0.000117
    24  H    0.000003  -0.043614   0.391136   0.003518  -0.036905   0.000296
    25  H    0.000013  -0.028795   0.371112   0.006447  -0.028004  -0.000093
    26  H   -0.000064  -0.030042   0.005951   0.379531   0.003150  -0.010129
    27  H   -0.000029  -0.043472  -0.003227   0.388063   0.004193  -0.004307
    28  H    0.001592   0.005807  -0.030742   0.003280   0.382691  -0.010973
    29  H   -0.000782  -0.003656  -0.044490   0.004447   0.389667  -0.005288
    30  H    0.000015   0.000008   0.000000   0.000583   0.000003   0.001588
    31  H    0.000001   0.000000   0.000000  -0.000001   0.000000  -0.000051
    32  H   -0.036060   0.000000  -0.000001   0.000006  -0.000081   0.002232
    33  H   -0.000001   0.000000   0.000000   0.000000   0.000000  -0.000007
    34  H    0.000000   0.000000   0.000000   0.000005   0.000000   0.000017
    35  H    0.000007  -0.000001   0.000000   0.000004   0.000000  -0.000146
    36  H    0.000000   0.000000   0.000000  -0.000004   0.000000  -0.000004
    37  H    0.000000   0.000000   0.000000   0.000000   0.000000   0.000000
              13         14         15         16         17         18
     1  O   -0.000793  -0.087443   0.000006  -0.010417   0.001647   0.661319
     2  O   -0.000076  -0.000920   0.000001   0.000039  -0.005246   0.003521
     3  O   -0.000079  -0.000402   0.000217   0.000004   0.005168  -0.003247
     4  N    0.002426  -0.005483   0.000233   0.000685   0.000066  -0.000158
     5  N    0.180476  -0.065119   0.237893   0.003603   0.392654  -0.002668
     6  N    0.474697  -0.025620  -0.001660  -0.044028  -0.006416  -0.002181
     7  N   -0.053121  -0.010294   0.000106   0.473628  -0.000451  -0.000382
     8  C   -0.000315   0.000046  -0.000012  -0.000016  -0.000001   0.000000
     9  C   -0.000006   0.000012  -0.000001  -0.000171   0.000000   0.000000
    10  C   -0.002893   0.000448  -0.000319   0.000223  -0.000051   0.000007
    11  C    0.000070   0.000121  -0.000002  -0.001654   0.000000   0.000012
    12  C   -0.274525  -0.037249  -0.001789  -0.225240  -0.001165  -0.004181
    13  C    5.682802   0.186677  -0.044413  -0.084581  -0.155062  -0.042089
    14  C    0.186677   5.687099   0.001839   0.260632   0.022943   0.122306
    15  C   -0.044413   0.001839   5.248636  -0.000128  -0.043587   0.000605
    16  C   -0.084581   0.260632  -0.000128   5.683429   0.004226  -0.031961
    17  C   -0.155062   0.022943  -0.043587   0.004226   5.540187  -0.094400
    18  C   -0.042089   0.122306   0.000605  -0.031961  -0.094400   5.246739
    19  C   -0.000197  -0.131523   0.002968  -0.019651   0.295066   0.009259
    20  C   -0.017061  -0.001831   0.280831  -0.000079  -0.003247   0.000128
    21  C    0.003243  -0.028173   0.000429  -0.000151  -0.015974  -0.042064
    22  H    0.000002   0.000000   0.000000   0.000003   0.000000   0.000000
    23  H    0.000002   0.000000   0.000000   0.000000   0.000000   0.000000
    24  H    0.000003   0.000000   0.000000   0.000003   0.000000   0.000000
    25  H    0.000000   0.000000   0.000000   0.000000   0.000000   0.000000
    26  H    0.000955  -0.000037   0.000068  -0.000051   0.000006   0.000000
    27  H    0.000369  -0.000043   0.000054  -0.000002   0.000002   0.000000
    28  H   -0.000067  -0.000001   0.000000   0.000826   0.000000   0.000000
    29  H   -0.000010  -0.000034   0.000000   0.000439   0.000000   0.000000
    30  H   -0.005959   0.000455   0.373051   0.000025   0.002285  -0.000046
    31  H    0.006758   0.000208   0.362940   0.000019  -0.001367  -0.000056
    32  H   -0.002310  -0.051445   0.000006   0.332840  -0.000168   0.003762
    33  H   -0.000780  -0.002080  -0.001026  -0.000006   0.321541   0.003326
    34  H   -0.000206  -0.000049  -0.036444   0.000000   0.005685  -0.000001
    35  H    0.006852   0.000257  -0.036572   0.000032  -0.000584   0.000007
    36  H   -0.000108  -0.000003  -0.028142   0.000000  -0.000047   0.000000
    37  H    0.000001   0.000050   0.000000  -0.000001  -0.000296   0.001314
              19         20         21         22         23         24
     1  O   -0.064937  -0.000001  -0.007633   0.000000   0.000000   0.000000
     2  O   -0.030254   0.000000   0.257478   0.000000   0.000000   0.000000
     3  O   -0.062745   0.000003   0.586527   0.000000   0.000000   0.000000
     4  N   -0.000025  -0.000021   0.000000  -0.003434   0.003311  -0.003489
     5  N   -0.064652  -0.065779   0.007936   0.000000   0.000000   0.000000
     6  N   -0.003103  -0.003955  -0.000020   0.000010   0.000015   0.000009
     7  N   -0.000022  -0.000055   0.000006   0.000005   0.000000   0.000003
     8  C    0.000000  -0.000002   0.000000   0.391550   0.370455  -0.043614
     9  C    0.000000   0.000000   0.000000  -0.043252  -0.028319   0.391136
    10  C    0.000002   0.000042   0.000000  -0.037489  -0.028187   0.003518
    11  C    0.000001   0.000000   0.000000   0.003776   0.006254  -0.036905
    12  C   -0.001314   0.000321  -0.000036   0.000225  -0.000117   0.000296
    13  C   -0.000197  -0.017061   0.003243   0.000002   0.000002   0.000003
    14  C   -0.131523  -0.001831  -0.028173   0.000000   0.000000   0.000000
    15  C    0.002968   0.280831   0.000429   0.000000   0.000000   0.000000
    16  C   -0.019651  -0.000079  -0.000151   0.000003   0.000000   0.000003
    17  C    0.295066  -0.003247  -0.015974   0.000000   0.000000   0.000000
    18  C    0.009259   0.000128  -0.042064   0.000000   0.000000   0.000000
    19  C    5.911178  -0.000087   0.066006   0.000000   0.000000   0.000000
    20  C   -0.000087   5.404832  -0.000026   0.000000   0.000000   0.000000
    21  C    0.066006  -0.000026   5.001653   0.000000   0.000000   0.000000
    22  H    0.000000   0.000000   0.000000   0.487852  -0.017575   0.002872
    23  H    0.000000   0.000000   0.000000  -0.017575   0.471284  -0.003215
    24  H    0.000000   0.000000   0.000000   0.002872  -0.003215   0.488121
    25  H    0.000000   0.000000   0.000000  -0.003182   0.000173  -0.017156
    26  H    0.000000   0.000109   0.000000  -0.003956   0.000501   0.000028
    27  H    0.000000  -0.000004   0.000000   0.002900  -0.001328   0.000965
    28  H    0.000000   0.000000   0.000000   0.000032  -0.000043  -0.003584
    29  H    0.000000   0.000000   0.000000   0.001000  -0.000087   0.002839
    30  H   -0.000136  -0.034320   0.000006   0.000000   0.000000   0.000000
    31  H    0.000143  -0.043278   0.000028   0.000000   0.000000   0.000000
    32  H    0.001896  -0.000001   0.000008   0.000000   0.000000   0.000000
    33  H   -0.014189  -0.000488  -0.007216   0.000000   0.000000   0.000000
    34  H    0.000069   0.373120   0.000025   0.000000   0.000000   0.000000
    35  H   -0.000018   0.374725   0.000000   0.000000   0.000000   0.000000
    36  H    0.000004   0.371212   0.000000   0.000000   0.000000   0.000000
    37  H    0.005275   0.000000  -0.029145   0.000000   0.000000   0.000000
              25         26         27         28         29         30
     1  O    0.000000   0.000000   0.000000   0.000000   0.000000   0.000000
     2  O    0.000000   0.000000   0.000000   0.000000   0.000000   0.000000
     3  O    0.000000   0.000000   0.000000   0.000000   0.000000   0.000000
     4  N    0.003253  -0.038786  -0.049582  -0.036321  -0.048766  -0.000081
     5  N    0.000000   0.000012   0.000009   0.000000   0.000000  -0.037473
     6  N    0.000001   0.002789  -0.000133  -0.000097  -0.000050   0.014341
     7  N    0.000013  -0.000064  -0.000029   0.001592  -0.000782   0.000015
     8  C   -0.028795  -0.030042  -0.043472   0.005807  -0.003656   0.000008
     9  C    0.371112   0.005951  -0.003227  -0.030742  -0.044490   0.000000
    10  C    0.006447   0.379531   0.388063   0.003280   0.004447   0.000583
    11  C   -0.028004   0.003150   0.004193   0.382691   0.389667   0.000003
    12  C   -0.000093  -0.010129  -0.004307  -0.010973  -0.005288   0.001588
    13  C    0.000000   0.000955   0.000369  -0.000067  -0.000010  -0.005959
    14  C    0.000000  -0.000037  -0.000043  -0.000001  -0.000034   0.000455
    15  C    0.000000   0.000068   0.000054   0.000000   0.000000   0.373051
    16  C    0.000000  -0.000051  -0.000002   0.000826   0.000439   0.000025
    17  C    0.000000   0.000006   0.000002   0.000000   0.000000   0.002285
    18  C    0.000000   0.000000   0.000000   0.000000   0.000000  -0.000046
    19  C    0.000000   0.000000   0.000000   0.000000   0.000000  -0.000136
    20  C    0.000000   0.000109  -0.000004   0.000000   0.000000  -0.034320
    21  C    0.000000   0.000000   0.000000   0.000000   0.000000   0.000006
    22  H   -0.003182  -0.003956   0.002900   0.000032   0.001000   0.000000
    23  H    0.000173   0.000501  -0.001328  -0.000043  -0.000087   0.000000
    24  H   -0.017156   0.000028   0.000965  -0.003584   0.002839   0.000000
    25  H    0.468382  -0.000042  -0.000079   0.000403  -0.001284   0.000000
    26  H   -0.000042   0.476342  -0.025080  -0.000104   0.000175  -0.000067
    27  H   -0.000079  -0.025080   0.503991   0.000156  -0.000125   0.000005
    28  H    0.000403  -0.000104   0.000156   0.453839  -0.020785   0.000000
    29  H   -0.001284   0.000175  -0.000125  -0.020785   0.495716   0.000000
    30  H    0.000000  -0.000067   0.000005   0.000000   0.000000   0.459819
    31  H    0.000000   0.000001   0.000000   0.000000   0.000000  -0.026739
    32  H    0.000000   0.000000   0.000000   0.000010   0.000006   0.000000
    33  H    0.000000   0.000000   0.000000   0.000000   0.000000   0.000167
    34  H    0.000000   0.000001   0.000000   0.000000   0.000000   0.002992
    35  H    0.000000   0.000153   0.000000   0.000000   0.000000  -0.003581
    36  H    0.000000  -0.000002   0.000000   0.000000   0.000000  -0.001278
    37  H    0.000000   0.000000   0.000000   0.000000   0.000000   0.000000
              31         32         33         34         35         36
     1  O    0.000000   0.008156  -0.000056   0.000000   0.000000   0.000000
     2  O    0.000000   0.000000   0.000313   0.000000   0.000000   0.000000
     3  O   -0.000003   0.000000   0.012290   0.000002   0.000000   0.000000
     4  N    0.000000   0.000027   0.000000   0.000000  -0.000014   0.000000
     5  N   -0.040456  -0.000166  -0.038855  -0.004393  -0.003824   0.004718
     6  N   -0.000248  -0.001223  -0.000052   0.000186   0.000234  -0.000091
     7  N    0.000001  -0.036060  -0.000001   0.000000   0.000007   0.000000
     8  C    0.000000   0.000000   0.000000   0.000000  -0.000001   0.000000
     9  C    0.000000  -0.000001   0.000000   0.000000   0.000000   0.000000
    10  C   -0.000001   0.000006   0.000000   0.000005   0.000004  -0.000004
    11  C    0.000000  -0.000081   0.000000   0.000000   0.000000   0.000000
    12  C   -0.000051   0.002232  -0.000007   0.000017  -0.000146  -0.000004
    13  C    0.006758  -0.002310  -0.000780  -0.000206   0.006852  -0.000108
    14  C    0.000208  -0.051445  -0.002080  -0.000049   0.000257  -0.000003
    15  C    0.362940   0.000006  -0.001026  -0.036444  -0.036572  -0.028142
    16  C    0.000019   0.332840  -0.000006   0.000000   0.000032   0.000000
    17  C   -0.001367  -0.000168   0.321541   0.005685  -0.000584  -0.000047
    18  C   -0.000056   0.003762   0.003326  -0.000001   0.000007   0.000000
    19  C    0.000143   0.001896  -0.014189   0.000069  -0.000018   0.000004
    20  C   -0.043278  -0.000001  -0.000488   0.373120   0.374725   0.371212
    21  C    0.000028   0.000008  -0.007216   0.000025   0.000000   0.000000
    22  H    0.000000   0.000000   0.000000   0.000000   0.000000   0.000000
    23  H    0.000000   0.000000   0.000000   0.000000   0.000000   0.000000
    24  H    0.000000   0.000000   0.000000   0.000000   0.000000   0.000000
    25  H    0.000000   0.000000   0.000000   0.000000   0.000000   0.000000
    26  H    0.000001   0.000000   0.000000   0.000001   0.000153  -0.000002
    27  H    0.000000   0.000000   0.000000   0.000000   0.000000   0.000000
    28  H    0.000000   0.000010   0.000000   0.000000   0.000000   0.000000
    29  H    0.000000   0.000006   0.000000   0.000000   0.000000   0.000000
    30  H   -0.026739   0.000000   0.000167   0.002992  -0.003581  -0.001278
    31  H    0.527409   0.000000   0.001365  -0.003775   0.003147  -0.001330
    32  H    0.000000   0.467735   0.000000   0.000000   0.000000   0.000000
    33  H    0.001365   0.000000   0.441161  -0.000230   0.000013   0.000014
    34  H   -0.003775   0.000000  -0.000230   0.487445  -0.021326  -0.020308
    35  H    0.003147   0.000000   0.000013  -0.021326   0.463201  -0.019260
    36  H   -0.001330   0.000000   0.000014  -0.020308  -0.019260   0.475617
    37  H    0.000000   0.000000   0.000000   0.000000   0.000000   0.000000
              37
     1  O    0.000305
     2  O    0.249818
     3  O    0.002933
     4  N    0.000000
     5  N    0.000001
     6  N    0.000000
     7  N    0.000000
     8  C    0.000000
     9  C    0.000000
    10  C    0.000000
    11  C    0.000000
    12  C    0.000000
    13  C    0.000001
    14  C    0.000050
    15  C    0.000000
    16  C   -0.000001
    17  C   -0.000296
    18  C    0.001314
    19  C    0.005275
    20  C    0.000000
    21  C   -0.029145
    22  H    0.000000
    23  H    0.000000
    24  H    0.000000
    25  H    0.000000
    26  H    0.000000
    27  H    0.000000
    28  H    0.000000
    29  H    0.000000
    30  H    0.000000
    31  H    0.000000
    32  H    0.000000
    33  H    0.000000
    34  H    0.000000
    35  H    0.000000
    36  H    0.000000
    37  H    0.361958
 Mulliken charges:
               1
     1  O   -0.285921
     2  O   -0.451872
     3  O   -0.353731
     4  N   -0.171635
     5  N   -0.195030
     6  N   -0.135346
     7  N   -0.102400
     8  C   -0.444313
     9  C   -0.445025
    10  C   -0.331994
    11  C   -0.324552
    12  C    0.062582
    13  C    0.139315
    14  C    0.164658
    15  C   -0.315789
    16  C   -0.342519
    17  C   -0.263412
    18  C    0.171130
    19  C    0.100986
    20  C   -0.635088
    21  C    0.207095
    22  H    0.218662
    23  H    0.226876
    24  H    0.218169
    25  H    0.228850
    26  H    0.238588
    27  H    0.226704
    28  H    0.254081
    29  H    0.231068
    30  H    0.254335
    31  H    0.215284
    32  H    0.274771
    33  H    0.284797
    34  H    0.217187
    35  H    0.236691
    36  H    0.219012
    37  H    0.407788
 Sum of Mulliken charges =   0.00000
 Mulliken charges with hydrogens summed into heavy atoms:
               1
     1  O   -0.285921
     2  O   -0.044085
     3  O   -0.353731
     4  N   -0.171635
     5  N   -0.195030
     6  N   -0.135346
     7  N   -0.102400
     8  C    0.001225
     9  C    0.001994
    10  C    0.133298
    11  C    0.160597
    12  C    0.062582
    13  C    0.139315
    14  C    0.164658
    15  C    0.153829
    16  C   -0.067748
    17  C    0.021385
    18  C    0.171130
    19  C    0.100986
    20  C    0.037802
    21  C    0.207095
 Electronic spatial extent (au):  <R**2>=           7668.4938
 Charge=              0.0000 electrons
 Dipole moment (field-independent basis, Debye):
    X=              6.5546    Y=              5.1446    Z=             -0.3949  Tot=              8.3418
 Quadrupole moment (field-independent basis, Debye-Ang):
   XX=           -112.8961   YY=           -125.3695   ZZ=           -120.4570
   XY=             -2.2008   XZ=             -0.4250   YZ=              0.8474
 Traceless Quadrupole moment (field-independent basis, Debye-Ang):
   XX=              6.6781   YY=             -5.7953   ZZ=             -0.8828
   XY=             -2.2008   XZ=             -0.4250   YZ=              0.8474
 Octapole moment (field-independent basis, Debye-Ang**2):
  XXX=            103.6246  YYY=             61.0678  ZZZ=              0.2602  XYY=             30.8154
  XXY=            -32.4374  XXZ=              6.1778  XZZ=             -2.6888  YZZ=              1.5293
  YYZ=             -5.9435  XYZ=             -4.3323
 Hexadecapole moment (field-independent basis, Debye-Ang**3):
 XXXX=          -6868.7305 YYYY=          -1878.2226 ZZZZ=           -224.7337 XXXY=            374.0892
 XXXZ=            -62.5301 YYYX=            -73.8465 YYYZ=             -4.6812 ZZZX=             -2.5521
 ZZZY=             -4.2656 XXYY=          -1731.0828 XXZZ=          -1310.8141 YYZZ=           -351.4287
 XXYZ=             11.7600 YYXZ=              6.9553 ZZXY=              5.8832
 N-N= 1.656275304934D+03 E-N=-5.614671860319D+03  KE= 9.822254984178D+02
 1\1\GINC-NODE043\FOpt\RM06\LANL2DZ\C14H16N4O3\SUPERCOMPUTO1\21-Jul-202
 0\0\\#opt M06/lanl2dz integral=ultrafine geom=connectivity\\Title Card
  Required\\0,1\O,-2.6338424226,-2.4857300232,0.2277685153\O,-5.1198019
 766,-1.2565719874,0.1398342936\O,-5.173234885,0.992081442,-0.186348597
 6\N,3.2588784074,-0.3509156191,-0.0506093241\N,-1.0867523133,1.3378247
 852,-0.296503529\N,1.1033177833,0.5040195022,-0.1783138128\N,1.5092053
 906,-1.8728416962,0.1392814047\C,5.3358685389,0.7327834163,0.152283834
 9\C,5.5656920485,-0.7150258337,-0.3179524672\C,3.8588886999,0.98609849
 51,-0.1817383198\C,4.2606490411,-1.4265888537,0.0646346667\C,1.9282613
 935,-0.5697383596,-0.0315720384\C,-0.2180192652,0.2553282646,-0.143994
 992\C,-0.761297767,-1.0350074397,0.0313653672\C,-0.5531226144,2.711586
 647,-0.4346075179\C,0.1890148468,-2.0710318994,0.1641957478\C,-2.43239
 45436,1.1244243677,-0.2390880432\C,-2.209748522,-1.3162026377,0.078286
 2721\C,-3.0348768767,-0.1025665737,-0.0657114317\C,-0.3161292639,3.349
 8371018,0.9329165664\C,-4.5078938419,-0.0535123053,-0.0474895349\H,5.4
 900391843,0.8036081254,1.2356126095\H,5.9995285379,1.4524764091,-0.333
 3895823\H,5.699111252,-0.7397674667,-1.4060903551\H,6.4404793227,-1.18
 0923548,0.1422109272\H,3.3682467819,1.6935185903,0.4950231657\H,3.7238
 400204,1.3626755736,-1.2054194732\H,3.9997893227,-2.2617531798,-0.5908
 078948\H,4.2828750998,-1.8119849598,1.092784191\H,0.382807138,2.644676
 9081,-0.993970074\H,-1.2762135158,3.2857566052,-1.0238196209\H,-0.1703
 789086,-3.0884059281,0.2967896009\H,-3.06682201,2.0026361152,-0.344273
 7361\H,-1.2449028275,3.3887088423,1.5138127411\H,0.4240322148,2.771797
 0435,1.4958475327\H,0.0593916546,4.3715523171,0.8171218614\H,-6.095031
 1251,-1.1356062405,0.1393820469\\Version=ES64L-G09RevD.01\State=1-A\HF
 =-987.0484777\RMSD=3.723e-09\RMSF=3.329e-06\Dipole=2.5941711,2.0032235
 ,-0.1685761\Quadrupole=4.9347115,-4.2817466,-0.6529649,-1.7074961,-0.3
 395449,0.6412139\PG=C01 [X(C14H16N4O3)]\\@


 KNOWING HOW CONTENTED, FREE, AND JOYFUL IS LIFE IN
 THE REALMS OF SCIENCE, ONE FERVENTLY WISHES THAT
 MANY WOULD ENTER HER PORTALS.
   --  DMITRI IVANOVICH MENDELEEV
 "FIRST PRINCIPLES OF CHEMISTRY", LONGMANS, GREEN,
 AND CO.  LONDON, 1891
 Job cpu time:       0 days  2 hours 49 minutes 14.9 seconds.
 File lengths (MBytes):  RWF=     33 Int=      0 D2E=      0 Chk=      5 Scr=      1
 Normal termination of Gaussian 09 at Tue Jul 21 07:04:05 2020.
