 Entering Gaussian System, Link 0=g09
 Input=nitrofurantoina.gjf
 Output=nitrofurantoina.log
 Initial command:
 /usr/local/cluster_programs/g09/l1.exe "/tmp/scratch/63914.prometeo/Gau-22710.inp" -scrdir="/tmp/scratch/63914.prometeo/"
 Entering Link 1 = /usr/local/cluster_programs/g09/l1.exe PID=     22711.
  
 Copyright (c) 1988,1990,1992,1993,1995,1998,2003,2009,2013,
            Gaussian, Inc.  All Rights Reserved.
  
 This is part of the Gaussian(R) 09 program.  It is based on
 the Gaussian(R) 03 system (copyright 2003, Gaussian, Inc.),
 the Gaussian(R) 98 system (copyright 1998, Gaussian, Inc.),
 the Gaussian(R) 94 system (copyright 1995, Gaussian, Inc.),
 the Gaussian 92(TM) system (copyright 1992, Gaussian, Inc.),
 the Gaussian 90(TM) system (copyright 1990, Gaussian, Inc.),
 the Gaussian 88(TM) system (copyright 1988, Gaussian, Inc.),
 the Gaussian 86(TM) system (copyright 1986, Carnegie Mellon
 University), and the Gaussian 82(TM) system (copyright 1983,
 Carnegie Mellon University). Gaussian is a federally registered
 trademark of Gaussian, Inc.
  
 This software contains proprietary and confidential information,
 including trade secrets, belonging to Gaussian, Inc.
  
 This software is provided under written license and may be
 used, copied, transmitted, or stored only in accord with that
 written license.
  
 The following legend is applicable only to US Government
 contracts under FAR:
  
                    RESTRICTED RIGHTS LEGEND
  
 Use, reproduction and disclosure by the US Government is
 subject to restrictions as set forth in subparagraphs (a)
 and (c) of the Commercial Computer Software - Restricted
 Rights clause in FAR 52.227-19.
  
 Gaussian, Inc.
 340 Quinnipiac St., Bldg. 40, Wallingford CT 06492
  
  
 ---------------------------------------------------------------
 Warning -- This program may not be used in any manner that
 competes with the business of Gaussian, Inc. or will provide
 assistance to any competitor of Gaussian, Inc.  The licensee
 of this program is prohibited from giving any competitor of
 Gaussian, Inc. access to this program.  By using this program,
 the user acknowledges that Gaussian, Inc. is engaged in the
 business of creating and licensing software in the field of
 computational chemistry and represents and warrants to the
 licensee that it is not a competitor of Gaussian, Inc. and that
 it will not use this program in any manner prohibited above.
 ---------------------------------------------------------------
  

 Cite this work as:
 Gaussian 09, Revision D.01,
 M. J. Frisch, G. W. Trucks, H. B. Schlegel, G. E. Scuseria, 
 M. A. Robb, J. R. Cheeseman, G. Scalmani, V. Barone, B. Mennucci, 
 G. A. Petersson, H. Nakatsuji, M. Caricato, X. Li, H. P. Hratchian, 
 A. F. Izmaylov, J. Bloino, G. Zheng, J. L. Sonnenberg, M. Hada, 
 M. Ehara, K. Toyota, R. Fukuda, J. Hasegawa, M. Ishida, T. Nakajima, 
 Y. Honda, O. Kitao, H. Nakai, T. Vreven, J. A. Montgomery, Jr., 
 J. E. Peralta, F. Ogliaro, M. Bearpark, J. J. Heyd, E. Brothers, 
 K. N. Kudin, V. N. Staroverov, T. Keith, R. Kobayashi, J. Normand, 
 K. Raghavachari, A. Rendell, J. C. Burant, S. S. Iyengar, J. Tomasi, 
 M. Cossi, N. Rega, J. M. Millam, M. Klene, J. E. Knox, J. B. Cross, 
 V. Bakken, C. Adamo, J. Jaramillo, R. Gomperts, R. E. Stratmann, 
 O. Yazyev, A. J. Austin, R. Cammi, C. Pomelli, J. W. Ochterski, 
 R. L. Martin, K. Morokuma, V. G. Zakrzewski, G. A. Voth, 
 P. Salvador, J. J. Dannenberg, S. Dapprich, A. D. Daniels, 
 O. Farkas, J. B. Foresman, J. V. Ortiz, J. Cioslowski, 
 and D. J. Fox, Gaussian, Inc., Wallingford CT, 2013.
 
 ******************************************
 Gaussian 09:  ES64L-G09RevD.01 24-Apr-2013
                 6-Jul-2020 
 ******************************************
 %nprocshared=20
 Will use up to   20 processors via shared memory.
 -----------------------------------
 # opt b3lyp/3-21g geom=connectivity
 -----------------------------------
 1/14=-1,18=20,19=15,26=3,38=1,57=2/1,3;
 2/9=110,12=2,17=6,18=5,40=1/2;
 3/5=5,11=2,16=1,25=1,30=1,71=1,74=-5/1,2,3;
 4//1;
 5/5=2,38=5/2;
 6/7=2,8=2,9=2,10=2,28=1/1;
 7//1,2,3,16;
 1/14=-1,18=20,19=15,26=3/3(2);
 2/9=110/2;
 99//99;
 2/9=110/2;
 3/5=5,11=2,16=1,25=1,30=1,71=1,74=-5/1,2,3;
 4/5=5,16=3,69=1/1;
 5/5=2,38=5/2;
 7//1,2,3,16;
 1/14=-1,18=20,19=15,26=3/3(-5);
 2/9=110/2;
 6/7=2,8=2,9=2,10=2,19=2,28=1/1;
 99/9=1/99;
 -------------------
 Title Card Required
 -------------------
 Symbolic Z-matrix:
 Charge =  0 Multiplicity = 1
 O(PDBName=O1,ResName=MOL,ResNum=1) 0     6.084    -5.034    -5.534    L 
 O(PDBName=O2,ResName=MOL,ResNum=1) 0     7.243    -12.441   -3.524    L 
 O(PDBName=O3,ResName=MOL,ResNum=1) 0     10.478   -9.537    -5.139    L 
 O(PDBName=O4,ResName=MOL,ResNum=1) 0     6.115    -1.641    -6.552    L 
 O(PDBName=O5,ResName=MOL,ResNum=1) 0     4.413    -2.898    -5.842    L 
 N(PDBName=N6,ResName=MOL,ResNum=1) 0     8.171    -9.225    -4.694    L 
 N(PDBName=N7,ResName=MOL,ResNum=1) 0     9.101    -11.2     -4.221    L 
 N(PDBName=N8,ResName=MOL,ResNum=1) 0     8.161    -7.941    -5.122    L 
 N(PDBName=N9,ResName=MOL,ResNum=1) 0     5.629    -2.728    -6.12     L 
 C(PDBName=C10,ResName=MOL,ResNum=1) 0     7.074    -10.062   -4.191    L 
 C(PDBName=C11,ResName=MOL,ResNum=1) 0     7.762    -11.405   -3.922    L 
 C(PDBName=C12,ResName=MOL,ResNum=1) 0     9.394    -9.922    -4.735    L 
 C(PDBName=C13,ResName=MOL,ResNum=1) 0     7.199    -5.861    -5.546    L 
 C(PDBName=C14,ResName=MOL,ResNum=1) 0     7.066    -7.225    -5.097    L 
 C(PDBName=C15,ResName=MOL,ResNum=1) 0     8.305    -5.16     -5.992    L 
 C(PDBName=C16,ResName=MOL,ResNum=1) 0     6.541    -3.813    -5.979    L 
 C(PDBName=C17,ResName=MOL,ResNum=1) 0     7.887    -3.85     -6.264    L 
 H(PDBName=H18,ResName=MOL,ResNum=1) 0     6.642    -9.661    -3.261    L 
 H(PDBName=H19,ResName=MOL,ResNum=1) 0     6.27     -10.2     -4.929    L 
 H(PDBName=H20,ResName=MOL,ResNum=1) 0     9.822    -12.183   -4.187    L 
 H(PDBName=H21,ResName=MOL,ResNum=1) 0     6.092    -7.828    -4.722    L 
 H(PDBName=H22,ResName=MOL,ResNum=1) 0     9.307    -5.306    -6.09     L 
 H(PDBName=H23,ResName=MOL,ResNum=1) 0     8.48     -3.018    -6.617    L 
 
 Center=      7.53200000     -7.31039130     -5.14260870
 Residue   1 PDB Number     1_0 MOL charge    0.00000000 layers R        AvRTP=      0.00000000    270.00000000     90.00000000

 GradGradGradGradGradGradGradGradGradGradGradGradGradGradGradGradGradGrad
 Berny optimization.
 Initialization pass.
                           ----------------------------
                           !    Initial Parameters    !
                           ! (Angstroms and Degrees)  !
 --------------------------                            --------------------------
 ! Name  Definition              Value          Derivative Info.                !
 --------------------------------------------------------------------------------
 ! R1    R(1,13)                 1.3883         estimate D2E/DX2                !
 ! R2    R(1,16)                 1.3776         estimate D2E/DX2                !
 ! R3    R(2,11)                 1.2252         estimate D2E/DX2                !
 ! R4    R(3,12)                 1.2192         estimate D2E/DX2                !
 ! R5    R(4,9)                  1.2666         estimate D2E/DX2                !
 ! R6    R(5,9)                  1.2589         estimate D2E/DX2                !
 ! R7    R(6,8)                  1.3535         estimate D2E/DX2                !
 ! R8    R(6,10)                 1.4687         estimate D2E/DX2                !
 ! R9    R(6,12)                 1.4083         estimate D2E/DX2                !
 ! R10   R(7,11)                 1.3872         estimate D2E/DX2                !
 ! R11   R(7,12)                 1.4083         estimate D2E/DX2                !
 ! R12   R(7,20)                 1.2195         estimate D2E/DX2                !
 ! R13   R(8,14)                 1.3086         estimate D2E/DX2                !
 ! R14   R(9,16)                 1.4244         estimate D2E/DX2                !
 ! R15   R(10,11)                1.5328         estimate D2E/DX2                !
 ! R16   R(10,18)                1.1011         estimate D2E/DX2                !
 ! R17   R(10,19)                1.1            estimate D2E/DX2                !
 ! R18   R(13,14)                1.4421         estimate D2E/DX2                !
 ! R19   R(13,15)                1.3833         estimate D2E/DX2                !
 ! R20   R(14,21)                1.2054         estimate D2E/DX2                !
 ! R21   R(15,17)                1.4017         estimate D2E/DX2                !
 ! R22   R(15,22)                1.0173         estimate D2E/DX2                !
 ! R23   R(16,17)                1.3763         estimate D2E/DX2                !
 ! R24   R(17,23)                1.081          estimate D2E/DX2                !
 ! A1    A(13,1,16)            104.9967         estimate D2E/DX2                !
 ! A2    A(8,6,10)             130.0478         estimate D2E/DX2                !
 ! A3    A(8,6,12)             117.8224         estimate D2E/DX2                !
 ! A4    A(10,6,12)            112.1218         estimate D2E/DX2                !
 ! A5    A(11,7,12)            114.4308         estimate D2E/DX2                !
 ! A6    A(11,7,20)            116.4575         estimate D2E/DX2                !
 ! A7    A(12,7,20)            128.2164         estimate D2E/DX2                !
 ! A8    A(6,8,14)             121.2798         estimate D2E/DX2                !
 ! A9    A(4,9,5)              124.1814         estimate D2E/DX2                !
 ! A10   A(4,9,16)             116.2184         estimate D2E/DX2                !
 ! A11   A(5,9,16)             119.5864         estimate D2E/DX2                !
 ! A12   A(6,10,11)            102.9548         estimate D2E/DX2                !
 ! A13   A(6,10,18)            112.0109         estimate D2E/DX2                !
 ! A14   A(6,10,19)            112.808          estimate D2E/DX2                !
 ! A15   A(11,10,18)           110.3029         estimate D2E/DX2                !
 ! A16   A(11,10,19)           109.6264         estimate D2E/DX2                !
 ! A17   A(18,10,19)           109.0009         estimate D2E/DX2                !
 ! A18   A(2,11,7)             127.1475         estimate D2E/DX2                !
 ! A19   A(2,11,10)            127.4286         estimate D2E/DX2                !
 ! A20   A(7,11,10)            105.4236         estimate D2E/DX2                !
 ! A21   A(3,12,6)             128.7178         estimate D2E/DX2                !
 ! A22   A(3,12,7)             126.3327         estimate D2E/DX2                !
 ! A23   A(6,12,7)             104.9415         estimate D2E/DX2                !
 ! A24   A(1,13,14)            119.1215         estimate D2E/DX2                !
 ! A25   A(1,13,15)            110.0634         estimate D2E/DX2                !
 ! A26   A(14,13,15)           130.7993         estimate D2E/DX2                !
 ! A27   A(8,14,13)            115.7471         estimate D2E/DX2                !
 ! A28   A(8,14,21)            114.1041         estimate D2E/DX2                !
 ! A29   A(13,14,21)           130.131          estimate D2E/DX2                !
 ! A30   A(13,15,17)           107.3217         estimate D2E/DX2                !
 ! A31   A(13,15,22)           138.2303         estimate D2E/DX2                !
 ! A32   A(17,15,22)           114.1514         estimate D2E/DX2                !
 ! A33   A(1,16,9)             119.6517         estimate D2E/DX2                !
 ! A34   A(1,16,17)            111.5611         estimate D2E/DX2                !
 ! A35   A(9,16,17)            128.7663         estimate D2E/DX2                !
 ! A36   A(15,17,16)           106.0559         estimate D2E/DX2                !
 ! A37   A(15,17,23)           128.2504         estimate D2E/DX2                !
 ! A38   A(16,17,23)           125.6916         estimate D2E/DX2                !
 ! D1    D(16,1,13,14)         178.5037         estimate D2E/DX2                !
 ! D2    D(16,1,13,15)          -0.204          estimate D2E/DX2                !
 ! D3    D(13,1,16,9)          178.4503         estimate D2E/DX2                !
 ! D4    D(13,1,16,17)          -0.029          estimate D2E/DX2                !
 ! D5    D(10,6,8,14)            2.0292         estimate D2E/DX2                !
 ! D6    D(12,6,8,14)         -179.0924         estimate D2E/DX2                !
 ! D7    D(8,6,10,11)          178.5307         estimate D2E/DX2                !
 ! D8    D(8,6,10,18)          -62.9777         estimate D2E/DX2                !
 ! D9    D(8,6,10,19)           60.4555         estimate D2E/DX2                !
 ! D10   D(12,6,10,11)          -0.3986         estimate D2E/DX2                !
 ! D11   D(12,6,10,18)         118.093          estimate D2E/DX2                !
 ! D12   D(12,6,10,19)        -118.4738         estimate D2E/DX2                !
 ! D13   D(8,6,12,3)            -1.768          estimate D2E/DX2                !
 ! D14   D(8,6,12,7)           179.2193         estimate D2E/DX2                !
 ! D15   D(10,6,12,3)          177.3053         estimate D2E/DX2                !
 ! D16   D(10,6,12,7)           -1.7074         estimate D2E/DX2                !
 ! D17   D(12,7,11,2)          176.4112         estimate D2E/DX2                !
 ! D18   D(12,7,11,10)          -3.7543         estimate D2E/DX2                !
 ! D19   D(20,7,11,2)            6.3371         estimate D2E/DX2                !
 ! D20   D(20,7,11,10)        -173.8285         estimate D2E/DX2                !
 ! D21   D(11,7,12,3)         -175.5408         estimate D2E/DX2                !
 ! D22   D(11,7,12,6)            3.503          estimate D2E/DX2                !
 ! D23   D(20,7,12,3)           -6.8682         estimate D2E/DX2                !
 ! D24   D(20,7,12,6)          172.1756         estimate D2E/DX2                !
 ! D25   D(6,8,14,13)          178.3519         estimate D2E/DX2                !
 ! D26   D(6,8,14,21)           -3.0268         estimate D2E/DX2                !
 ! D27   D(4,9,16,1)          -179.0216         estimate D2E/DX2                !
 ! D28   D(4,9,16,17)           -0.8356         estimate D2E/DX2                !
 ! D29   D(5,9,16,1)            -0.3162         estimate D2E/DX2                !
 ! D30   D(5,9,16,17)          177.8699         estimate D2E/DX2                !
 ! D31   D(6,10,11,2)         -177.7867         estimate D2E/DX2                !
 ! D32   D(6,10,11,7)            2.3795         estimate D2E/DX2                !
 ! D33   D(18,10,11,2)          62.5334         estimate D2E/DX2                !
 ! D34   D(18,10,11,7)        -117.3004         estimate D2E/DX2                !
 ! D35   D(19,10,11,2)         -57.4994         estimate D2E/DX2                !
 ! D36   D(19,10,11,7)         122.6668         estimate D2E/DX2                !
 ! D37   D(1,13,14,8)         -179.2652         estimate D2E/DX2                !
 ! D38   D(1,13,14,21)           2.3809         estimate D2E/DX2                !
 ! D39   D(15,13,14,8)          -0.8687         estimate D2E/DX2                !
 ! D40   D(15,13,14,21)       -179.2226         estimate D2E/DX2                !
 ! D41   D(1,13,15,17)           0.3557         estimate D2E/DX2                !
 ! D42   D(1,13,15,22)         173.3715         estimate D2E/DX2                !
 ! D43   D(14,13,15,17)       -178.153          estimate D2E/DX2                !
 ! D44   D(14,13,15,22)         -5.1372         estimate D2E/DX2                !
 ! D45   D(13,15,17,16)         -0.3582         estimate D2E/DX2                !
 ! D46   D(13,15,17,23)        179.128          estimate D2E/DX2                !
 ! D47   D(22,15,17,16)       -175.2654         estimate D2E/DX2                !
 ! D48   D(22,15,17,23)          4.2208         estimate D2E/DX2                !
 ! D49   D(1,16,17,15)           0.2428         estimate D2E/DX2                !
 ! D50   D(1,16,17,23)        -179.2603         estimate D2E/DX2                !
 ! D51   D(9,16,17,15)        -178.0622         estimate D2E/DX2                !
 ! D52   D(9,16,17,23)           2.4347         estimate D2E/DX2                !
 --------------------------------------------------------------------------------
 Trust Radius=3.00D-01 FncErr=1.00D-07 GrdErr=1.00D-06
 Number of steps in this run=    124 maximum allowed number of steps=    138.
 GradGradGradGradGradGradGradGradGradGradGradGradGradGradGradGradGradGrad

                          Input orientation:                          
 ---------------------------------------------------------------------
 Center     Atomic      Atomic             Coordinates (Angstroms)
 Number     Number       Type             X           Y           Z
 ---------------------------------------------------------------------
      1          8           0        6.084000   -5.034000   -5.534000
      2          8           0        7.243000  -12.441000   -3.524000
      3          8           0       10.478000   -9.537000   -5.139000
      4          8           0        6.115000   -1.641000   -6.552000
      5          8           0        4.413000   -2.898000   -5.842000
      6          7           0        8.171000   -9.225000   -4.694000
      7          7           0        9.101000  -11.200000   -4.221000
      8          7           0        8.161000   -7.941000   -5.122000
      9          7           0        5.629000   -2.728000   -6.120000
     10          6           0        7.074000  -10.062000   -4.191000
     11          6           0        7.762000  -11.405000   -3.922000
     12          6           0        9.394000   -9.922000   -4.735000
     13          6           0        7.199000   -5.861000   -5.546000
     14          6           0        7.066000   -7.225000   -5.097000
     15          6           0        8.305000   -5.160000   -5.992000
     16          6           0        6.541000   -3.813000   -5.979000
     17          6           0        7.887000   -3.850000   -6.264000
     18          1           0        6.642000   -9.661000   -3.261000
     19          1           0        6.270000  -10.200000   -4.929000
     20          1           0        9.822000  -12.183000   -4.187000
     21          1           0        6.092000   -7.828000   -4.722000
     22          1           0        9.307000   -5.306000   -6.090000
     23          1           0        8.480000   -3.018000   -6.617000
 ---------------------------------------------------------------------
                    Distance matrix (angstroms):
                    1          2          3          4          5
     1  O    0.000000
     2  O    7.761896   0.000000
     3  O    6.303988   4.637528   0.000000
     4  O    3.542560  11.273028   9.131219   0.000000
     5  O    2.729396  10.220121   9.019687   2.231805   0.000000
     6  N    4.756643   3.545806   2.370151   8.074426   7.447912
     7  N    6.988978   2.340524   2.346150  10.282229   9.670997
     8  N    3.596432   4.862749   2.813538   6.776505   6.324378
     9  N    2.422407  10.182661   8.416510   1.266645   1.258904
    10  C    5.297597   2.476508   3.572330   8.798139   7.818543
    11  C    6.782615   1.225178   3.513854  10.245253   9.341908
    12  C    5.957100   3.526852   1.219220   9.090011   8.681727
    13  C    1.388272   6.883809   4.942718   4.471632   4.077840
    14  C    2.440445   5.450900   4.121754   5.848289   5.129948
    15  C    2.271229   7.760917   4.960612   4.182471   4.504088
    16  C    1.377576   8.997900   6.997839   2.286348   2.320426
    17  C    2.277184   9.040333   6.349872   2.846508   3.626715
    18  H    5.185270   2.856356   4.272839   8.684976   7.574178
    19  H    5.204630   2.818304   4.265083   8.712900   7.589547
    20  H    8.178952   2.675327   2.887552  11.422296  10.872329
    21  H    2.909612   4.903037   4.725629   6.452007   5.327133
    22  H    3.281897   7.858287   4.491882   4.882062   5.459964
    23  H    3.313301   9.994486   6.976665   2.737440   4.141922
                    6          7          8          9         10
     6  N    0.000000
     7  N    2.233664   0.000000
     8  N    1.353492   3.509485   0.000000
     9  N    7.120832   9.350710   5.880680   0.000000
    10  C    1.468668   2.324795   2.558705   7.719885   0.000000
    11  C    2.348545   1.387208   3.687614   9.201697   1.532760
    12  C    1.408268   1.408307   2.365252   8.236934   2.387035
    13  C    3.603774   5.820494   2.330584   3.551065   4.415886
    14  C    2.320223   4.550739   1.308551   4.830580   2.978165
    15  C    4.269307   6.344419   2.917464   3.618285   5.365498
    16  C    5.796367   8.013235   4.516551   1.424377   6.521582
    17  C    5.606798   7.724645   4.256233   2.525507   6.599033
    18  H    2.140427   3.055618   2.954502   7.567466   1.101056
    19  H    2.149337   3.084773   2.952323   7.593428   1.100047
    20  H    3.425290   1.219543   4.650560  10.522108   3.471334
    21  H    2.504922   4.547028   2.110339   5.308368   2.497407
    22  H    4.312525   6.186666   3.032089   4.491622   5.586772
    23  H    6.505402   8.548192   5.154873   2.908489   7.581573
                   11         12         13         14         15
    11  C    0.000000
    12  C    2.350251   0.000000
    13  C    5.804333   4.686946   0.000000
    14  C    4.397436   3.581122   1.442146   0.000000
    15  C    6.601498   5.044067   1.383312   2.569119   0.000000
    16  C    7.959934   6.856167   2.194255   3.563045   2.219521
    17  C    7.910665   6.440347   2.243432   3.664226   1.401716
    18  H    2.175513   3.132778   4.468946   3.079735   5.521135
    19  H    2.166134   3.142339   4.480028   3.084228   5.538302
    20  H    2.217906   2.365504   6.978158   5.745033   7.408228
    21  H    4.027881   3.910014   2.402814   1.205367   3.691679
    22  H    6.654701   4.811554   2.246692   3.112987   1.017312
    23  H    8.838570   7.214051   3.297067   4.691337   2.238172
                   16         17         18         19         20
    16  C    0.000000
    17  C    1.376339   0.000000
    18  H    6.449560   6.658510   0.000000
    19  H    6.478403   6.687258   1.791962   0.000000
    20  H    9.166958   8.803240   4.162975   4.135161   0.000000
    21  H    4.231061   4.628636   2.407677   2.387659   5.758919
    22  H    3.145175   2.041228   5.837079   5.875587   7.154003
    23  H    2.190614   1.080963   7.666187   7.701595   9.576173
                   21         22         23
    21  H    0.000000
    22  H    4.309076   0.000000
    23  H    5.694705   2.489297   0.000000
 Stoichiometry    C8H6N4O5
 Framework group  C1[X(C8H6N4O5)]
 Deg. of freedom    63
 Full point group                 C1      NOp   1
 Largest Abelian subgroup         C1      NOp   1
 Largest concise Abelian subgroup C1      NOp   1
                         Standard orientation:                         
 ---------------------------------------------------------------------
 Center     Atomic      Atomic             Coordinates (Angstroms)
 Number     Number       Type             X           Y           Z
 ---------------------------------------------------------------------
      1          8           0       -2.347178   -0.732683   -0.005122
      2          8           0        5.343844   -1.779180   -0.012387
      3          8           0        3.169869    2.317148   -0.036813
      4          8           0       -5.735663    0.300384    0.020917
      5          8           0       -4.876254   -1.758924   -0.019357
      6          7           0        2.336225    0.098785    0.002199
      7          7           0        4.545771    0.419643    0.067060
      8          7           0        1.038230    0.480822   -0.032388
      9          7           0       -4.758867   -0.505984    0.015308
     10          6           0        2.925419   -1.246488    0.011042
     11          6           0        4.431525   -0.961951    0.017116
     12          6           0        3.318397    1.107976    0.011578
     13          6           0       -1.267196    0.139342   -0.027736
     14          6           0        0.070375   -0.399810   -0.025382
     15          6           0       -1.714063    1.448467   -0.020384
     16          6           0       -3.460078    0.078793    0.020868
     17          6           0       -3.114811    1.411113    0.015943
     18          1           0        2.640553   -1.815856    0.909373
     19          1           0        2.663708   -1.832525   -0.882363
     20          1           0        5.671981    0.875833   -0.036996
     21          1           0        0.446516   -1.544828   -0.044385
     22          1           0       -1.320697    2.384090    0.048878
     23          1           0       -3.805920    2.241811    0.044066
 ---------------------------------------------------------------------
 Rotational constants (GHZ):      1.5617995      0.1599209      0.1452152
 Standard basis: 3-21G (6D, 7F)
 There are   165 symmetry adapted cartesian basis functions of A   symmetry.
 There are   165 symmetry adapted basis functions of A   symmetry.
   165 basis functions,   273 primitive gaussians,   165 cartesian basis functions
    61 alpha electrons       61 beta electrons
       nuclear repulsion energy      1104.1662381660 Hartrees.
 NAtoms=   23 NActive=   23 NUniq=   23 SFac= 1.00D+00 NAtFMM=   60 NAOKFM=F Big=F
 Integral buffers will be    131072 words long.
 Raffenetti 2 integral format.
 Two-electron integral symmetry is turned on.
 One-electron integrals computed using PRISM.
 PrsmSu:  requested number of processors reduced to:   9 ShMem   1 Linda.
 NBasis=   165 RedAO= T EigKep=  2.53D-03  NBF=   165
 NBsUse=   165 1.00D-06 EigRej= -1.00D+00 NBFU=   165
 ExpMin= 1.83D-01 ExpMax= 3.22D+02 ExpMxC= 3.22D+02 IAcc=1 IRadAn=         1 AccDes= 0.00D+00
 Harris functional with IExCor=  402 and IRadAn=       1 diagonalized for initial guess.
 HarFok:  IExCor=  402 AccDes= 0.00D+00 IRadAn=         1 IDoV= 1 UseB2=F ITyADJ=14
 ICtDFT=  3500011 ScaDFX=  1.000000  1.000000  1.000000  1.000000
 FoFCou: FMM=F IPFlag=           0 FMFlag=      100000 FMFlg1=           0
         NFxFlg=           0 DoJE=T BraDBF=F KetDBF=T FulRan=T
         wScrn=  0.000000 ICntrl=     500 IOpCl=  0 I1Cent=   200000004 NGrid=           0
         NMat0=    1 NMatS0=      1 NMatT0=    0 NMatD0=    1 NMtDS0=    0 NMtDT0=    0
 Petite list used in FoFCou.
 Requested convergence on RMS density matrix=1.00D-08 within 128 cycles.
 Requested convergence on MAX density matrix=1.00D-06.
 Requested convergence on             energy=1.00D-06.
 No special actions if energy rises.
 Integral accuracy reduced to 1.0D-05 until final iterations.
 Initial convergence to 1.0D-05 achieved.  Increase integral accuracy.
 SCF Done:  E(RB3LYP) =  -898.370558340     A.U. after   17 cycles
            NFock= 17  Conv=0.76D-08     -V/T= 2.0081

 **********************************************************************

            Population analysis using the SCF density.

 **********************************************************************

 Orbital symmetries:
       Occupied  (A) (A) (A) (A) (A) (A) (A) (A) (A) (A) (A) (A)
                 (A) (A) (A) (A) (A) (A) (A) (A) (A) (A) (A) (A)
                 (A) (A) (A) (A) (A) (A) (A) (A) (A) (A) (A) (A)
                 (A) (A) (A) (A) (A) (A) (A) (A) (A) (A) (A) (A)
                 (A) (A) (A) (A) (A) (A) (A) (A) (A) (A) (A) (A)
                 (A)
       Virtual   (A) (A) (A) (A) (A) (A) (A) (A) (A) (A) (A) (A)
                 (A) (A) (A) (A) (A) (A) (A) (A) (A) (A) (A) (A)
                 (A) (A) (A) (A) (A) (A) (A) (A) (A) (A) (A) (A)
                 (A) (A) (A) (A) (A) (A) (A) (A) (A) (A) (A) (A)
                 (A) (A) (A) (A) (A) (A) (A) (A) (A) (A) (A) (A)
                 (A) (A) (A) (A) (A) (A) (A) (A) (A) (A) (A) (A)
                 (A) (A) (A) (A) (A) (A) (A) (A) (A) (A) (A) (A)
                 (A) (A) (A) (A) (A) (A) (A) (A) (A) (A) (A) (A)
                 (A) (A) (A) (A) (A) (A) (A) (A)
 The electronic state is 1-A.
 Alpha  occ. eigenvalues --  -19.16616 -19.06338 -19.06100 -19.05842 -19.04894
 Alpha  occ. eigenvalues --  -14.48687 -14.37202 -14.34506 -14.33647 -10.30228
 Alpha  occ. eigenvalues --  -10.28224 -10.25625 -10.24500 -10.22245 -10.22194
 Alpha  occ. eigenvalues --  -10.17442 -10.16270  -1.22039  -1.16860  -1.11845
 Alpha  occ. eigenvalues --   -1.08788  -1.05691  -1.04459  -0.98972  -0.89614
 Alpha  occ. eigenvalues --   -0.86249  -0.83916  -0.79485  -0.74813  -0.68237
 Alpha  occ. eigenvalues --   -0.65462  -0.64640  -0.60874  -0.60245  -0.56799
 Alpha  occ. eigenvalues --   -0.54708  -0.54176  -0.53980  -0.52823  -0.51364
 Alpha  occ. eigenvalues --   -0.48777  -0.48320  -0.48202  -0.46125  -0.45384
 Alpha  occ. eigenvalues --   -0.44986  -0.44102  -0.44072  -0.43769  -0.41899
 Alpha  occ. eigenvalues --   -0.39114  -0.32692  -0.31815  -0.30999  -0.30454
 Alpha  occ. eigenvalues --   -0.30131  -0.29361  -0.28578  -0.28040  -0.27609
 Alpha  occ. eigenvalues --   -0.24150
 Alpha virt. eigenvalues --   -0.10362  -0.05654  -0.03089   0.00310   0.03074
 Alpha virt. eigenvalues --    0.04673   0.04923   0.07529   0.09600   0.10992
 Alpha virt. eigenvalues --    0.11512   0.12992   0.15452   0.15826   0.17523
 Alpha virt. eigenvalues --    0.18618   0.19346   0.20981   0.23826   0.25276
 Alpha virt. eigenvalues --    0.27006   0.28827   0.31698   0.34721   0.38280
 Alpha virt. eigenvalues --    0.38785   0.39990   0.43899   0.45603   0.50148
 Alpha virt. eigenvalues --    0.62698   0.64106   0.65610   0.66674   0.67251
 Alpha virt. eigenvalues --    0.68591   0.70075   0.70843   0.71966   0.72280
 Alpha virt. eigenvalues --    0.73687   0.74982   0.75618   0.75645   0.76514
 Alpha virt. eigenvalues --    0.77026   0.77575   0.82313   0.86588   0.87464
 Alpha virt. eigenvalues --    0.89302   0.94885   0.96364   0.97108   0.98471
 Alpha virt. eigenvalues --    1.02894   1.06226   1.08362   1.09085   1.09389
 Alpha virt. eigenvalues --    1.12573   1.16287   1.18864   1.21159   1.25486
 Alpha virt. eigenvalues --    1.27239   1.28401   1.33367   1.35952   1.37514
 Alpha virt. eigenvalues --    1.41145   1.44012   1.47181   1.47853   1.48445
 Alpha virt. eigenvalues --    1.53347   1.54074   1.54874   1.55296   1.55960
 Alpha virt. eigenvalues --    1.57250   1.59288   1.59707   1.62312   1.64053
 Alpha virt. eigenvalues --    1.64470   1.68474   1.72544   1.74349   1.77466
 Alpha virt. eigenvalues --    1.80145   1.85584   1.93402   1.98500   2.24592
 Alpha virt. eigenvalues --    2.51044   2.65758   2.69198   2.79532   2.87438
 Alpha virt. eigenvalues --    2.89410   3.31619   3.34239   3.45535
          Condensed to atoms (all electrons):
               1          2          3          4          5          6
     1  O    8.169180   0.000000   0.000000   0.000295   0.000379  -0.000002
     2  O    0.000000   7.997656  -0.000001   0.000000   0.000000   0.000621
     3  O    0.000000  -0.000001   7.973225   0.000000   0.000000  -0.057012
     4  O    0.000295   0.000000   0.000000   8.265367  -0.065026   0.000000
     5  O    0.000379   0.000000   0.000000  -0.065026   8.275585   0.000000
     6  N   -0.000002   0.000621  -0.057012   0.000000   0.000000   7.400150
     7  N    0.000000  -0.062668  -0.060120   0.000000   0.000000  -0.104885
     8  N    0.000531  -0.000001   0.000415   0.000000   0.000000   0.219337
     9  N   -0.018959   0.000000   0.000000   0.188963   0.153309   0.000000
    10  C    0.000000  -0.071420   0.000777   0.000000   0.000000   0.127755
    11  C    0.000000   0.590246  -0.000190   0.000000   0.000000  -0.001795
    12  C    0.000000  -0.000133   0.598141   0.000000   0.000000   0.097739
    13  C    0.267772   0.000000   0.000000  -0.000025   0.000158   0.005853
    14  C   -0.024669   0.000000   0.000146   0.000000   0.000002  -0.083836
    15  C   -0.076496   0.000000  -0.000001   0.000351  -0.000059  -0.000119
    16  C    0.275464   0.000000   0.000000  -0.096943  -0.068248   0.000000
    17  C   -0.086664   0.000000   0.000000   0.014618   0.003195  -0.000002
    18  H    0.000000   0.000226  -0.000005   0.000000   0.000000  -0.035942
    19  H    0.000000   0.000299   0.000000   0.000000   0.000000  -0.035052
    20  H    0.000000   0.002059   0.000072   0.000000   0.000000   0.001632
    21  H   -0.000394   0.000001  -0.000002   0.000000   0.000000  -0.010473
    22  H    0.001549   0.000000   0.000003   0.000000   0.000000  -0.000006
    23  H    0.001566   0.000000   0.000000   0.004642   0.000018   0.000000
               7          8          9         10         11         12
     1  O    0.000000   0.000531  -0.018959   0.000000   0.000000   0.000000
     2  O   -0.062668  -0.000001   0.000000  -0.071420   0.590246  -0.000133
     3  O   -0.060120   0.000415   0.000000   0.000777  -0.000190   0.598141
     4  O    0.000000   0.000000   0.188963   0.000000   0.000000   0.000000
     5  O    0.000000   0.000000   0.153309   0.000000   0.000000   0.000000
     6  N   -0.104885   0.219337   0.000000   0.127755  -0.001795   0.097739
     7  N    7.576902   0.001850   0.000000  -0.142447   0.107090   0.130634
     8  N    0.001850   6.796892   0.000000  -0.021383   0.001275  -0.048433
     9  N    0.000000   0.000000   6.654461   0.000000   0.000000   0.000000
    10  C   -0.142447  -0.021383   0.000000   5.622018   0.118096  -0.066543
    11  C    0.107090   0.001275   0.000000   0.118096   4.681941  -0.066832
    12  C    0.130634  -0.048433   0.000000  -0.066543  -0.066832   4.416007
    13  C    0.000000  -0.100624  -0.001481  -0.000596  -0.000001  -0.000036
    14  C   -0.000078   0.441893  -0.000044  -0.010236   0.000284   0.005445
    15  C    0.000000   0.004966   0.004669   0.000015   0.000000   0.000008
    16  C    0.000000  -0.000092   0.022503   0.000000   0.000000   0.000000
    17  C    0.000000   0.000449  -0.048429   0.000000   0.000000   0.000000
    18  H    0.001875   0.000091   0.000000   0.348895  -0.029587   0.001347
    19  H    0.002073  -0.000058   0.000000   0.348266  -0.030870   0.001361
    20  H    0.284188  -0.000009   0.000000   0.004883  -0.015806  -0.010722
    21  H    0.000014  -0.053387  -0.000001   0.012184  -0.000062  -0.000582
    22  H    0.000000   0.000373  -0.000022   0.000000   0.000000   0.000005
    23  H    0.000000   0.000000  -0.002963   0.000000   0.000000   0.000000
              13         14         15         16         17         18
     1  O    0.267772  -0.024669  -0.076496   0.275464  -0.086664   0.000000
     2  O    0.000000   0.000000   0.000000   0.000000   0.000000   0.000226
     3  O    0.000000   0.000146  -0.000001   0.000000   0.000000  -0.000005
     4  O   -0.000025   0.000000   0.000351  -0.096943   0.014618   0.000000
     5  O    0.000158   0.000002  -0.000059  -0.068248   0.003195   0.000000
     6  N    0.005853  -0.083836  -0.000119   0.000000  -0.000002  -0.035942
     7  N    0.000000  -0.000078   0.000000   0.000000   0.000000   0.001875
     8  N   -0.100624   0.441893   0.004966  -0.000092   0.000449   0.000091
     9  N   -0.001481  -0.000044   0.004669   0.022503  -0.048429   0.000000
    10  C   -0.000596  -0.010236   0.000015   0.000000   0.000000   0.348895
    11  C   -0.000001   0.000284   0.000000   0.000000   0.000000  -0.029587
    12  C   -0.000036   0.005445   0.000008   0.000000   0.000000   0.001347
    13  C    5.132374   0.323358   0.360285  -0.167530  -0.076805   0.000001
    14  C    0.323358   5.024464  -0.076397  -0.000372   0.008662   0.002027
    15  C    0.360285  -0.076397   5.393810  -0.079636   0.299503  -0.000001
    16  C   -0.167530  -0.000372  -0.079636   5.282145   0.219357   0.000000
    17  C   -0.076805   0.008662   0.299503   0.219357   5.504877   0.000000
    18  H    0.000001   0.002027  -0.000001   0.000000   0.000000   0.474452
    19  H    0.000007   0.001725  -0.000001   0.000000   0.000000  -0.030568
    20  H    0.000000   0.000001   0.000000   0.000000   0.000000  -0.000056
    21  H   -0.040722   0.335470   0.002469  -0.000058   0.000017  -0.000080
    22  H   -0.016845  -0.001901   0.395939   0.007246  -0.046505   0.000000
    23  H    0.004841  -0.000015  -0.025477  -0.031756   0.379294   0.000000
              19         20         21         22         23
     1  O    0.000000   0.000000  -0.000394   0.001549   0.001566
     2  O    0.000299   0.002059   0.000001   0.000000   0.000000
     3  O    0.000000   0.000072  -0.000002   0.000003   0.000000
     4  O    0.000000   0.000000   0.000000   0.000000   0.004642
     5  O    0.000000   0.000000   0.000000   0.000000   0.000018
     6  N   -0.035052   0.001632  -0.010473  -0.000006   0.000000
     7  N    0.002073   0.284188   0.000014   0.000000   0.000000
     8  N   -0.000058  -0.000009  -0.053387   0.000373   0.000000
     9  N    0.000000   0.000000  -0.000001  -0.000022  -0.002963
    10  C    0.348266   0.004883   0.012184   0.000000   0.000000
    11  C   -0.030870  -0.015806  -0.000062   0.000000   0.000000
    12  C    0.001361  -0.010722  -0.000582   0.000005   0.000000
    13  C    0.000007   0.000000  -0.040722  -0.016845   0.004841
    14  C    0.001725   0.000001   0.335470  -0.001901  -0.000015
    15  C   -0.000001   0.000000   0.002469   0.395939  -0.025477
    16  C    0.000000   0.000000  -0.000058   0.007246  -0.031756
    17  C    0.000000   0.000000   0.000017  -0.046505   0.379294
    18  H   -0.030568  -0.000056  -0.000080   0.000000   0.000000
    19  H    0.476703  -0.000059   0.000145   0.000000   0.000000
    20  H   -0.000059   0.395438   0.000000   0.000000   0.000000
    21  H    0.000145   0.000000   0.562568   0.000014   0.000000
    22  H    0.000000   0.000000   0.000014   0.426624  -0.001891
    23  H    0.000000   0.000000   0.000000  -0.001891   0.429004
 Mulliken charges:
               1
     1  O   -0.509552
     2  O   -0.456884
     3  O   -0.455447
     4  O   -0.312240
     5  O   -0.299313
     6  N   -0.523965
     7  N   -0.734429
     8  N   -0.244083
     9  N    0.047993
    10  C   -0.270263
    11  C    0.646210
    12  C    0.942593
    13  C    0.310016
    14  C    0.054072
    15  C   -0.203828
    16  C    0.637920
    17  C   -0.171566
    18  H    0.267327
    19  H    0.266029
    20  H    0.338379
    21  H    0.192877
    22  H    0.235416
    23  H    0.242737
 Sum of Mulliken charges =   0.00000
 Mulliken charges with hydrogens summed into heavy atoms:
               1
     1  O   -0.509552
     2  O   -0.456884
     3  O   -0.455447
     4  O   -0.312240
     5  O   -0.299313
     6  N   -0.523965
     7  N   -0.396049
     8  N   -0.244083
     9  N    0.047993
    10  C    0.263094
    11  C    0.646210
    12  C    0.942593
    13  C    0.310016
    14  C    0.246949
    15  C    0.031588
    16  C    0.637920
    17  C    0.071171
 Electronic spatial extent (au):  <R**2>=           6602.6457
 Charge=              0.0000 electrons
 Dipole moment (field-independent basis, Debye):
    X=              4.6133    Y=              0.5242    Z=              0.0105  Tot=              4.6430
 Quadrupole moment (field-independent basis, Debye-Ang):
   XX=           -120.1415   YY=           -101.5009   ZZ=            -93.3315
   XY=             -7.3242   XZ=             -0.9433   YZ=              0.1703
 Traceless Quadrupole moment (field-independent basis, Debye-Ang):
   XX=            -15.1502   YY=              3.4904   ZZ=             11.6598
   XY=             -7.3242   XZ=             -0.9433   YZ=              0.1703
 Octapole moment (field-independent basis, Debye-Ang**2):
  XXX=            198.2971  YYY=             -2.7810  ZZZ=             -0.1781  XYY=            -33.0269
  XXY=            101.9142  XXZ=             -3.3287  XZZ=             -1.7568  YZZ=             -6.7980
  YYZ=              1.2275  XYZ=             -0.6874
 Hexadecapole moment (field-independent basis, Debye-Ang**3):
 XXXX=          -8238.1549 YYYY=           -843.3599 ZZZZ=            -85.0048 XXXY=            355.9976
 XXXZ=            -27.0315 YYYX=            -65.5102 YYYZ=              2.3466 ZZZX=             -1.6926
 ZZZY=             -0.0971 XXYY=          -1541.5252 XXZZ=          -1174.6386 YYZZ=           -145.7032
 XXYZ=             -5.7777 YYXZ=             -0.4940 ZZXY=             14.7937
 N-N= 1.104166238166D+03 E-N=-4.307135297252D+03  KE= 8.911779184530D+02
 PrsmSu:  requested number of processors reduced to:  10 ShMem   1 Linda.
 Calling FoFJK, ICntrl=      2127 FMM=F ISym2X=0 I1Cent= 0 IOpClX= 0 NMat=1 NMatS=1 NMatT=0.
 ***** Axes restored to original set *****
 -------------------------------------------------------------------
 Center     Atomic                   Forces (Hartrees/Bohr)
 Number     Number              X              Y              Z
 -------------------------------------------------------------------
      1        8          -0.001371686    0.001268094   -0.001613992
      2        8          -0.000160819    0.001461281   -0.000737917
      3        8          -0.003324428    0.004010800    0.001086864
      4        8           0.020177430    0.017795600   -0.008210181
      5        8          -0.022066064   -0.015401099    0.010057410
      6        7          -0.001170768   -0.007687264    0.000802093
      7        7           0.037766269   -0.084057474    0.005691375
      8        7           0.000907998    0.019766227   -0.003003685
      9        7           0.005734884   -0.009950869   -0.000064939
     10        6          -0.012690193    0.005307890    0.002745832
     11        6           0.001808549   -0.003393145    0.003164194
     12        6           0.021734773   -0.004991787   -0.006418817
     13        6           0.000928463   -0.016885363    0.005523046
     14        6          -0.018867826   -0.054741504    0.016999492
     15        6          -0.034039721    0.020727363    0.004926496
     16        6          -0.000626045    0.019058206   -0.007222468
     17        6          -0.024014415    0.015774560    0.000280668
     18        1           0.001418278   -0.001550005   -0.002318934
     19        1           0.002463845    0.001054668    0.001003090
     20        1          -0.049317595    0.083428235   -0.004432812
     21        1           0.032053813    0.047528550   -0.019110481
     22        1           0.046345936   -0.034886659   -0.000448361
     23        1          -0.003690676   -0.003636305    0.001302024
 -------------------------------------------------------------------
 Cartesian Forces:  Max     0.084057474 RMS     0.022463870

 GradGradGradGradGradGradGradGradGradGradGradGradGradGradGradGradGradGrad
 Berny optimization.
 FormGI is forming the generalized inverse of G from B-inverse, IUseBI=4.
 GSVD:  received Info=                   1 from GESDD.
 Internal  Forces:  Max     0.096527249 RMS     0.013820368
 Search for a local minimum.
 Step number   1 out of a maximum of  124
 All quantities printed in internal units (Hartrees-Bohrs-Radians)
 Mixed Optimization -- RFO/linear search
 Second derivative matrix not updated -- first step.
 ITU=  0
     Eigenvalues ---    0.00723   0.00952   0.01165   0.01369   0.01373
     Eigenvalues ---    0.01531   0.01538   0.01583   0.01764   0.01881
     Eigenvalues ---    0.01889   0.01910   0.01915   0.02051   0.02210
     Eigenvalues ---    0.02233   0.02293   0.02901   0.05244   0.07147
     Eigenvalues ---    0.08424   0.09520   0.15656   0.15851   0.15998
     Eigenvalues ---    0.15999   0.22000   0.22843   0.23292   0.23354
     Eigenvalues ---    0.24126   0.24278   0.24717   0.24990   0.24992
     Eigenvalues ---    0.24992   0.24996   0.25000   0.25000   0.25000
     Eigenvalues ---    0.25000   0.28658   0.33566   0.33677   0.34387
     Eigenvalues ---    0.35878   0.39293   0.41808   0.42072   0.42119
     Eigenvalues ---    0.42575   0.42924   0.44770   0.46548   0.46904
     Eigenvalues ---    0.48980   0.49213   0.54285   0.64873   0.77378
     Eigenvalues ---    0.80032   0.93125   0.95730
 RFO step:  Lambda=-6.76238390D-02 EMin= 7.23386639D-03
 Linear search not attempted -- first point.
 Maximum step size (   0.300) exceeded in Quadratic search.
    -- Step size scaled by   0.635
 Iteration  1 RMS(Cart)=  0.05688916 RMS(Int)=  0.00106883
 Iteration  2 RMS(Cart)=  0.00163461 RMS(Int)=  0.00014748
 Iteration  3 RMS(Cart)=  0.00000216 RMS(Int)=  0.00014747
 Iteration  4 RMS(Cart)=  0.00000000 RMS(Int)=  0.00014747
 Variable       Old X    -DE/DX   Delta X   Delta X   Delta X     New X
                                 (Linear)    (Quad)   (Total)
    R1        2.62345   0.00674   0.00000   0.00767   0.00768   2.63114
    R2        2.60324   0.00327   0.00000   0.00316   0.00315   2.60639
    R3        2.31525  -0.00141   0.00000  -0.00089  -0.00089   2.31436
    R4        2.30399  -0.00205   0.00000  -0.00127  -0.00127   2.30272
    R5        2.39361   0.02581   0.00000   0.01948   0.01948   2.41309
    R6        2.37898   0.02561   0.00000   0.01874   0.01874   2.39772
    R7        2.55773   0.00626   0.00000   0.00651   0.00651   2.56424
    R8        2.77538   0.00391   0.00000   0.00618   0.00618   2.78156
    R9        2.66124   0.00535   0.00000   0.00688   0.00688   2.66812
   R10        2.62144   0.00149   0.00000   0.00143   0.00143   2.62287
   R11        2.66131   0.00366   0.00000   0.00439   0.00440   2.66571
   R12        2.30460  -0.09653   0.00000  -0.20390  -0.20390   2.10070
   R13        2.47280  -0.00774   0.00000  -0.00686  -0.00686   2.46594
   R14        2.69168  -0.00840   0.00000  -0.01098  -0.01098   2.68071
   R15        2.89650   0.00377   0.00000   0.00660   0.00659   2.90309
   R16        2.08069  -0.00308   0.00000  -0.00485  -0.00485   2.07585
   R17        2.07879  -0.00261   0.00000  -0.00409  -0.00409   2.07470
   R18        2.72526  -0.00838   0.00000  -0.01155  -0.01155   2.71372
   R19        2.61408  -0.00539   0.00000  -0.00578  -0.00577   2.60831
   R20        2.27781  -0.05562   0.00000  -0.11377  -0.11377   2.16405
   R21        2.64886   0.02500   0.00000   0.03094   0.03094   2.67980
   R22        1.92244   0.05070   0.00000   0.06246   0.06246   1.98490
   R23        2.60090  -0.00667   0.00000  -0.00764  -0.00765   2.59325
   R24        2.04272  -0.00525   0.00000  -0.00781  -0.00781   2.03491
    A1        1.83254   0.00757   0.00000   0.01338   0.01338   1.84592
    A2        2.26976  -0.00636   0.00000  -0.01305  -0.01306   2.25670
    A3        2.05639   0.00174   0.00000   0.00314   0.00314   2.05953
    A4        1.95689   0.00462   0.00000   0.00995   0.00995   1.96684
    A5        1.99719   0.00505   0.00000   0.01065   0.01066   2.00785
    A6        2.03257   0.00842   0.00000   0.02618   0.02621   2.05878
    A7        2.23780  -0.01327   0.00000  -0.03528  -0.03534   2.20246
    A8        2.11673  -0.01110   0.00000  -0.02219  -0.02219   2.09454
    A9        2.16737   0.01913   0.00000   0.03833   0.03828   2.20566
   A10        2.02839  -0.00744   0.00000  -0.01478  -0.01483   2.01356
   A11        2.08718  -0.01164   0.00000  -0.02317  -0.02322   2.06396
   A12        1.79690  -0.00247   0.00000  -0.00555  -0.00556   1.79134
   A13        1.95496   0.00097   0.00000   0.00221   0.00218   1.95714
   A14        1.96887  -0.00021   0.00000  -0.00198  -0.00195   1.96692
   A15        1.92515   0.00019   0.00000  -0.00063  -0.00062   1.92453
   A16        1.91334   0.00142   0.00000   0.00402   0.00400   1.91735
   A17        1.90242   0.00004   0.00000   0.00169   0.00169   1.90412
   A18        2.21914   0.00128   0.00000   0.00292   0.00292   2.22206
   A19        2.22405  -0.00055   0.00000  -0.00075  -0.00075   2.22330
   A20        1.83999  -0.00073   0.00000  -0.00216  -0.00217   1.83782
   A21        2.24655  -0.00210   0.00000  -0.00422  -0.00424   2.24231
   A22        2.20492   0.00859   0.00000   0.01719   0.01717   2.22209
   A23        1.83157  -0.00647   0.00000  -0.01284  -0.01283   1.81875
   A24        2.07906  -0.00152   0.00000  -0.00320  -0.00322   2.07584
   A25        1.92097  -0.00139   0.00000  -0.00238  -0.00236   1.91861
   A26        2.28288   0.00293   0.00000   0.00572   0.00570   2.28858
   A27        2.02017   0.00711   0.00000   0.01571   0.01571   2.03588
   A28        1.99149   0.02330   0.00000   0.06709   0.06709   2.05858
   A29        2.27121  -0.03041   0.00000  -0.08273  -0.08273   2.18848
   A30        1.87312  -0.00481   0.00000  -0.00870  -0.00869   1.86443
   A31        2.41257  -0.02396   0.00000  -0.06917  -0.06929   2.34328
   A32        1.99232   0.02890   0.00000   0.07916   0.07922   2.07154
   A33        2.08832  -0.00219   0.00000  -0.00386  -0.00385   2.08446
   A34        1.94711  -0.00555   0.00000  -0.01210  -0.01212   1.93499
   A35        2.24740   0.00776   0.00000   0.01604   0.01605   2.26345
   A36        1.85102   0.00418   0.00000   0.00981   0.00980   1.86082
   A37        2.23839  -0.00119   0.00000  -0.00239  -0.00239   2.23601
   A38        2.19373  -0.00300   0.00000  -0.00742  -0.00741   2.18632
    D1        3.11548   0.00121   0.00000   0.00669   0.00647   3.12195
    D2       -0.00356   0.00018   0.00000   0.00087   0.00082  -0.00274
    D3        3.11455   0.00062   0.00000   0.00356   0.00353   3.11807
    D4       -0.00051  -0.00011   0.00000   0.00026   0.00035  -0.00016
    D5        0.03542  -0.00066   0.00000  -0.00423  -0.00421   0.03121
    D6       -3.12575  -0.00012   0.00000  -0.00151  -0.00153  -3.12729
    D7        3.11595   0.00054   0.00000   0.00294   0.00291   3.11886
    D8       -1.09917  -0.00022   0.00000   0.00001  -0.00002  -1.09919
    D9        1.05515   0.00043   0.00000   0.00245   0.00242   1.05756
   D10       -0.00696   0.00003   0.00000   0.00039   0.00040  -0.00655
   D11        2.06111  -0.00072   0.00000  -0.00253  -0.00253   2.05858
   D12       -2.06776  -0.00008   0.00000  -0.00010  -0.00009  -2.06785
   D13       -0.03086   0.00118   0.00000   0.00725   0.00713  -0.02372
   D14        3.12797  -0.00023   0.00000  -0.00173  -0.00173   3.12623
   D15        3.09456   0.00152   0.00000   0.00925   0.00913   3.10369
   D16       -0.02980   0.00010   0.00000   0.00027   0.00026  -0.02954
   D17        3.07896  -0.00049   0.00000  -0.00064  -0.00058   3.07838
   D18       -0.06553  -0.00014   0.00000   0.00042   0.00044  -0.06509
   D19        0.11060  -0.00009   0.00000  -0.00522  -0.00542   0.10518
   D20       -3.03388   0.00026   0.00000  -0.00416  -0.00441  -3.03829
   D21       -3.06376  -0.00126   0.00000  -0.00897  -0.00899  -3.07276
   D22        0.06114  -0.00003   0.00000  -0.00053  -0.00054   0.06060
   D23       -0.11987   0.00121   0.00000   0.00445   0.00423  -0.11564
   D24        3.00503   0.00245   0.00000   0.01288   0.01269   3.01772
   D25        3.11283   0.00177   0.00000   0.01025   0.01012   3.12295
   D26       -0.05283   0.00159   0.00000   0.01184   0.01197  -0.04086
   D27       -3.12452  -0.00151   0.00000  -0.01112  -0.01107  -3.13558
   D28       -0.01458  -0.00090   0.00000  -0.00773  -0.00778  -0.02236
   D29       -0.00552   0.00092   0.00000   0.00788   0.00793   0.00241
   D30        3.10442   0.00153   0.00000   0.01126   0.01121   3.11563
   D31       -3.10296   0.00026   0.00000   0.00025   0.00019  -3.10277
   D32        0.04153  -0.00010   0.00000  -0.00082  -0.00083   0.04070
   D33        1.09141   0.00041   0.00000   0.00107   0.00103   1.09244
   D34       -2.04728   0.00005   0.00000  -0.00001   0.00000  -2.04728
   D35       -1.00355  -0.00067   0.00000  -0.00318  -0.00323  -1.00678
   D36        2.14094  -0.00102   0.00000  -0.00425  -0.00425   2.13669
   D37       -3.12877  -0.00036   0.00000  -0.00240  -0.00238  -3.13115
   D38        0.04156  -0.00117   0.00000  -0.00717  -0.00703   0.03453
   D39       -0.01516   0.00084   0.00000   0.00465   0.00451  -0.01065
   D40       -3.12803   0.00003   0.00000  -0.00011  -0.00014  -3.12816
   D41        0.00621  -0.00025   0.00000  -0.00175  -0.00173   0.00448
   D42        3.02590   0.00386   0.00000   0.02058   0.01990   3.04580
   D43       -3.10936  -0.00136   0.00000  -0.00829  -0.00812  -3.11747
   D44       -0.08966   0.00275   0.00000   0.01404   0.01351  -0.07615
   D45       -0.00625   0.00013   0.00000   0.00176   0.00182  -0.00443
   D46        3.12637  -0.00006   0.00000   0.00228   0.00252   3.12890
   D47       -3.05896   0.00069   0.00000  -0.00442  -0.00525  -3.06421
   D48        0.07367   0.00050   0.00000  -0.00390  -0.00455   0.06912
   D49        0.00424  -0.00003   0.00000  -0.00129  -0.00138   0.00286
   D50       -3.12868   0.00014   0.00000  -0.00182  -0.00209  -3.13077
   D51       -3.10777  -0.00063   0.00000  -0.00453  -0.00451  -3.11228
   D52        0.04249  -0.00045   0.00000  -0.00506  -0.00522   0.03727
         Item               Value     Threshold  Converged?
 Maximum Force            0.096527     0.000450     NO 
 RMS     Force            0.013820     0.000300     NO 
 Maximum Displacement     0.211589     0.001800     NO 
 RMS     Displacement     0.057239     0.001200     NO 
 Predicted change in Energy=-3.241291D-02
 GradGradGradGradGradGradGradGradGradGradGradGradGradGradGradGradGradGrad

                          Input orientation:                          
 ---------------------------------------------------------------------
 Center     Atomic      Atomic             Coordinates (Angstroms)
 Number     Number       Type             X           Y           Z
 ---------------------------------------------------------------------
      1          8           0        6.113817   -5.057917   -5.526752
      2          8           0        7.168129  -12.413577   -3.532457
      3          8           0       10.511816   -9.592877   -5.113576
      4          8           0        6.048332   -1.664244   -6.532981
      5          8           0        4.376395   -3.009968   -5.787359
      6          7           0        8.206487   -9.229794   -4.697833
      7          7           0        9.068841  -11.225198   -4.212361
      8          7           0        8.228286   -7.941910   -5.124640
      9          7           0        5.582366   -2.772310   -6.102086
     10          6           0        7.073206  -10.029741   -4.205535
     11          6           0        7.721297  -11.394261   -3.926032
     12          6           0        9.415582   -9.958312   -4.726811
     13          6           0        7.246865   -5.866902   -5.545436
     14          6           0        7.136567   -7.227525   -5.099634
     15          6           0        8.332137   -5.146057   -6.001161
     16          6           0        6.528212   -3.822227   -5.978031
     17          6           0        7.868134   -3.834113   -6.274086
     18          1           0        6.644403   -9.615963   -3.282714
     19          1           0        6.276947  -10.141233   -4.953123
     20          1           0        9.725711  -12.121290   -4.176461
     21          1           0        6.171330   -7.734489   -4.749341
     22          1           0        9.358460   -5.348019   -6.096764
     23          1           0        8.432677   -2.991073   -6.634826
 ---------------------------------------------------------------------
                    Distance matrix (angstroms):
                    1          2          3          4          5
     1  O    0.000000
     2  O    7.693797   0.000000
     3  O    6.330796   4.651508   0.000000
     4  O    3.540311  11.216294   9.208726   0.000000
     5  O    2.698267  10.065099   9.023972   2.272069   0.000000
     6  N    4.740351   3.545809   2.370488   8.078549   7.385317
     7  N    6.963846   2.342482   2.357718  10.291773   9.591125
     8  N    3.598623   4.863618   2.817858   6.792990   6.292878
     9  N    2.416081  10.103051   8.473297   1.276952   1.268818
    10  C    5.233075   2.478854   3.583215   8.743507   7.684541
    11  C    6.730197   1.224705   3.527355  10.211181   9.216793
    12  C    5.962837   3.536361   1.218548   9.131933   8.648564
    13  C    1.392337   6.849616   4.972856   4.480409   4.057117
    14  C    2.436318   5.417764   4.121576   5.847123   5.087171
    15  C    2.270193   7.763134   5.031204   4.197811   4.500720
    16  C    1.379241   8.955536   7.065181   2.279286   2.307908
    17  C    2.265796   9.034031   6.441987   2.843772   3.620547
    18  H    5.108132   2.857149   4.278956   8.611004   7.419992
    19  H    5.118180   2.824189   4.273237   8.625982   7.427179
    20  H    8.047379   2.653563   2.808739  11.332525  10.687674
    21  H    2.787779   4.936424   4.735620   6.328062   5.159493
    22  H    3.307080   7.829133   4.507296   4.971662   5.512094
    23  H    3.297997  10.000368   7.086667   2.730558   4.143909
                    6          7          8          9         10
     6  N    0.000000
     7  N    2.227325   0.000000
     8  N    1.356939   3.509810   0.000000
     9  N    7.110346   9.336909   5.889062   0.000000
    10  C    1.471938   2.326311   2.556952   7.647863   0.000000
    11  C    2.348617   1.387963   3.689501   9.145942   1.536248
    12  C    1.411910   1.410634   2.373566   8.259754   2.400741
    13  C    3.598381   5.814467   2.333649   3.557655   4.376611
    14  C    2.305483   4.527949   1.304922   4.823836   2.942081
    15  C    4.288514   6.379537   2.931871   3.634019   5.353462
    16  C    5.804937   8.023489   4.537656   1.418569   6.478580
    17  C    5.631378   7.766630   4.280763   2.526212   6.580017
    18  H    2.142847   3.054796   2.950225   7.477457   1.098491
    19  H    2.149190   3.085187   2.945193   7.490232   1.097883
    20  H    3.307661   1.111642   4.539663  10.405708   3.378047
    21  H    2.525956   4.568257   2.101176   5.176872   2.525330
    22  H    4.283950   6.178680   2.991754   4.570906   5.542351
    23  H    6.536417   8.606617   5.180080   2.907910   7.569179
                   11         12         13         14         15
    11  C    0.000000
    12  C    2.360889   0.000000
    13  C    5.779208   4.702459   0.000000
    14  C    4.368173   3.576325   1.436037   0.000000
    15  C    6.612059   5.094666   1.380260   2.564108   0.000000
    16  C    7.935354   6.895941   2.210044   3.568996   2.237679
    17  C    7.917749   6.503419   2.247028   3.664665   1.418091
    18  H    2.176212   3.143573   4.420219   3.041062   5.497132
    19  H    2.170516   3.152095   4.422837   3.041399   5.502179
    20  H    2.146849   2.253340   6.865577   5.612918   7.343395
    21  H    4.058838   3.933328   2.297482   1.145164   3.596681
    22  H    6.629436   4.809869   2.243219   3.076300   1.050365
    23  H    8.857606   7.290339   3.295954   4.688736   2.248466
                   16         17         18         19         20
    16  C    0.000000
    17  C    1.372290   0.000000
    18  H    6.391058   6.623867   0.000000
    19  H    6.406513   6.637513   1.789190   0.000000
    20  H    9.074365   8.748024   4.070615   4.051889   0.000000
    21  H    4.116168   4.518508   2.432024   2.417665   5.675019
    22  H    3.217521   2.131765   5.787947   5.811931   7.049798
    23  H    2.179262   1.076829   7.636999   7.655070   9.543394
                   21         22         23
    21  H    0.000000
    22  H    4.203401   0.000000
    23  H    5.582897   2.588779   0.000000
 Stoichiometry    C8H6N4O5
 Framework group  C1[X(C8H6N4O5)]
 Deg. of freedom    63
 Full point group                 C1      NOp   1
 Largest Abelian subgroup         C1      NOp   1
 Largest concise Abelian subgroup C1      NOp   1
                         Standard orientation:                         
 ---------------------------------------------------------------------
 Center     Atomic      Atomic             Coordinates (Angstroms)
 Number     Number       Type             X           Y           Z
 ---------------------------------------------------------------------
      1          8           0       -2.331042   -0.697398    0.000109
      2          8           0        5.275148   -1.854898   -0.023920
      3          8           0        3.232205    2.323966   -0.024782
      4          8           0       -5.740914    0.254626    0.015275
      5          8           0       -4.789832   -1.808674   -0.007920
      6          7           0        2.336656    0.129346    0.004372
      7          7           0        4.550097    0.370896    0.061886
      8          7           0        1.045699    0.546464   -0.022585
      9          7           0       -4.742033   -0.540857    0.008075
     10          6           0        2.873704   -1.241114    0.008483
     11          6           0        4.392018   -1.007074    0.010408
     12          6           0        3.350704    1.111759    0.012246
     13          6           0       -1.261070    0.193292   -0.020709
     14          6           0        0.077045   -0.327873   -0.014589
     15          6           0       -1.729663    1.491573   -0.022858
     16          6           0       -3.468088    0.083134    0.014345
     17          6           0       -3.145545    1.416936    0.003404
     18          1           0        2.573778   -1.800522    0.905026
     19          1           0        2.585485   -1.811720   -0.884090
     20          1           0        5.579287    0.781174   -0.028603
     21          1           0        0.356326   -1.438402   -0.025844
     22          1           0       -1.273288    2.435750    0.036455
     23          1           0       -3.853668    2.228006    0.020346
 ---------------------------------------------------------------------
 Rotational constants (GHZ):      1.5177814      0.1611327      0.1458129
 Standard basis: 3-21G (6D, 7F)
 There are   165 symmetry adapted cartesian basis functions of A   symmetry.
 There are   165 symmetry adapted basis functions of A   symmetry.
   165 basis functions,   273 primitive gaussians,   165 cartesian basis functions
    61 alpha electrons       61 beta electrons
       nuclear repulsion energy      1104.4900908940 Hartrees.
 NAtoms=   23 NActive=   23 NUniq=   23 SFac= 1.00D+00 NAtFMM=   60 NAOKFM=F Big=F
 Integral buffers will be    131072 words long.
 Raffenetti 2 integral format.
 Two-electron integral symmetry is turned on.
 One-electron integrals computed using PRISM.
 PrsmSu:  requested number of processors reduced to:   9 ShMem   1 Linda.
 NBasis=   165 RedAO= T EigKep=  2.50D-03  NBF=   165
 NBsUse=   165 1.00D-06 EigRej= -1.00D+00 NBFU=   165
 Initial guess from the checkpoint file:  "/tmp/scratch/63914.prometeo/Gau-22711.chk"
 B after Tr=     0.000000    0.000000    0.000000
         Rot=    1.000000   -0.000326    0.000003    0.000871 Ang=  -0.11 deg.
 ExpMin= 1.83D-01 ExpMax= 3.22D+02 ExpMxC= 3.22D+02 IAcc=1 IRadAn=         1 AccDes= 0.00D+00
 Harris functional with IExCor=  402 and IRadAn=       1 diagonalized for initial guess.
 HarFok:  IExCor=  402 AccDes= 0.00D+00 IRadAn=         1 IDoV= 1 UseB2=F ITyADJ=14
 ICtDFT=  3500011 ScaDFX=  1.000000  1.000000  1.000000  1.000000
 FoFCou: FMM=F IPFlag=           0 FMFlag=      100000 FMFlg1=           0
         NFxFlg=           0 DoJE=T BraDBF=F KetDBF=T FulRan=T
         wScrn=  0.000000 ICntrl=     500 IOpCl=  0 I1Cent=   200000004 NGrid=           0
         NMat0=    1 NMatS0=      1 NMatT0=    0 NMatD0=    1 NMtDS0=    0 NMtDT0=    0
 Petite list used in FoFCou.
 Requested convergence on RMS density matrix=1.00D-08 within 128 cycles.
 Requested convergence on MAX density matrix=1.00D-06.
 Requested convergence on             energy=1.00D-06.
 No special actions if energy rises.
 Integral accuracy reduced to 1.0D-05 until final iterations.
 Initial convergence to 1.0D-05 achieved.  Increase integral accuracy.
 SCF Done:  E(RB3LYP) =  -898.405387292     A.U. after   15 cycles
            NFock= 15  Conv=0.62D-08     -V/T= 2.0081
 PrsmSu:  requested number of processors reduced to:  10 ShMem   1 Linda.
 Calling FoFJK, ICntrl=      2127 FMM=F ISym2X=0 I1Cent= 0 IOpClX= 0 NMat=1 NMatS=1 NMatT=0.
 ***** Axes restored to original set *****
 -------------------------------------------------------------------
 Center     Atomic                   Forces (Hartrees/Bohr)
 Number     Number              X              Y              Z
 -------------------------------------------------------------------
      1        8          -0.004535302   -0.002360443    0.000243918
      2        8           0.000672947    0.000980073   -0.000584980
      3        8          -0.002566718    0.001362053    0.001125485
      4        8           0.007968336    0.010912896   -0.004710262
      5        8          -0.012099439   -0.006556137    0.004731031
      6        7          -0.000650585   -0.007354974    0.000837171
      7        7           0.025454685   -0.058423605    0.002333563
      8        7           0.000249960    0.014285219   -0.001841843
      9        7           0.006619990   -0.008895521    0.001690195
     10        6          -0.006610339    0.003644673    0.001548261
     11        6          -0.000029591    0.000645610    0.001920940
     12        6           0.010320594   -0.003336497   -0.002392590
     13        6           0.000150897   -0.007705950    0.002941265
     14        6          -0.011704729   -0.034335934    0.010037317
     15        6          -0.011992628    0.021199728    0.001220351
     16        6           0.002636395    0.007992946   -0.005164826
     17        6          -0.010885989    0.005608510    0.000748279
     18        1           0.001035307   -0.000569378   -0.001119304
     19        1           0.001659710    0.000787369    0.000143749
     20        1          -0.029722033    0.055415148   -0.002876140
     21        1           0.019737426    0.029264811   -0.011543828
     22        1           0.015663187   -0.021014072    0.000394045
     23        1          -0.001372079   -0.001546526    0.000318203
 -------------------------------------------------------------------
 Cartesian Forces:  Max     0.058423605 RMS     0.013968450

 GradGradGradGradGradGradGradGradGradGradGradGradGradGradGradGradGradGrad
 Berny optimization.
 Using GEDIIS/GDIIS optimizer.
 FormGI is forming the generalized inverse of G from B-inverse, IUseBI=4.
 GSVD:  received Info=                   1 from GESDD.
 Internal  Forces:  Max     0.062325419 RMS     0.008182980
 Search for a local minimum.
 Step number   2 out of a maximum of  124
 All quantities printed in internal units (Hartrees-Bohrs-Radians)
 Mixed Optimization -- RFO/linear search
 Update second derivatives using D2CorX and points    1    2
 DE= -3.48D-02 DEPred=-3.24D-02 R= 1.07D+00
 TightC=F SS=  1.41D+00  RLast= 3.03D-01 DXNew= 5.0454D-01 9.1013D-01
 Trust test= 1.07D+00 RLast= 3.03D-01 DXMaxT set to 5.05D-01
 ITU=  1  0
 Use linear search instead of GDIIS.
     Eigenvalues ---    0.00724   0.00953   0.01168   0.01369   0.01373
     Eigenvalues ---    0.01531   0.01537   0.01583   0.01763   0.01879
     Eigenvalues ---    0.01910   0.01915   0.01942   0.02049   0.02200
     Eigenvalues ---    0.02232   0.02287   0.02903   0.05279   0.07165
     Eigenvalues ---    0.08368   0.09472   0.13527   0.15812   0.15944
     Eigenvalues ---    0.16003   0.19308   0.22061   0.23008   0.23412
     Eigenvalues ---    0.24112   0.24226   0.24796   0.24968   0.24993
     Eigenvalues ---    0.24995   0.24999   0.24999   0.25000   0.25000
     Eigenvalues ---    0.26629   0.28662   0.33567   0.33677   0.34413
     Eigenvalues ---    0.35898   0.39316   0.41776   0.42096   0.42322
     Eigenvalues ---    0.42567   0.43054   0.46225   0.46550   0.48277
     Eigenvalues ---    0.49080   0.49273   0.54343   0.64856   0.77133
     Eigenvalues ---    0.79817   0.93123   0.95728
 RFO step:  Lambda=-4.94122016D-03 EMin= 7.24102461D-03
 Quartic linear search produced a step of  1.07016.
 Iteration  1 RMS(Cart)=  0.08199191 RMS(Int)=  0.00842422
 Iteration  2 RMS(Cart)=  0.00930932 RMS(Int)=  0.00084939
 Iteration  3 RMS(Cart)=  0.00001567 RMS(Int)=  0.00084926
 Iteration  4 RMS(Cart)=  0.00000003 RMS(Int)=  0.00084926
 Variable       Old X    -DE/DX   Delta X   Delta X   Delta X     New X
                                 (Linear)    (Quad)   (Total)
    R1        2.63114   0.00206   0.00822  -0.00604   0.00219   2.63333
    R2        2.60639   0.00313   0.00337   0.00686   0.01021   2.61660
    R3        2.31436  -0.00131  -0.00096  -0.00133  -0.00228   2.31207
    R4        2.30272  -0.00226  -0.00136  -0.00264  -0.00400   2.29873
    R5        2.41309   0.01397   0.02084   0.00229   0.02313   2.43622
    R6        2.39772   0.01390   0.02005   0.00238   0.02242   2.42014
    R7        2.56424   0.00680   0.00697   0.01337   0.02034   2.58458
    R8        2.78156   0.00060   0.00661  -0.00896  -0.00243   2.77913
    R9        2.66812   0.00258   0.00736  -0.00152   0.00581   2.67393
   R10        2.62287   0.00118   0.00153   0.00207   0.00364   2.62651
   R11        2.66571   0.00118   0.00471  -0.00337   0.00141   2.66712
   R12        2.10070  -0.06233  -0.21821  -0.06709  -0.28530   1.81540
   R13        2.46594  -0.00420  -0.00734  -0.00073  -0.00807   2.45787
   R14        2.68071  -0.00517  -0.01175  -0.00345  -0.01520   2.66551
   R15        2.90309   0.00254   0.00705   0.00353   0.01058   2.91367
   R16        2.07585  -0.00156  -0.00519   0.00068  -0.00451   2.07134
   R17        2.07470  -0.00138  -0.00438   0.00019  -0.00419   2.07051
   R18        2.71372  -0.00359  -0.01236   0.00458  -0.00778   2.70594
   R19        2.60831  -0.00167  -0.00617   0.00407  -0.00207   2.60624
   R20        2.16405  -0.03312  -0.12175  -0.01517  -0.13692   2.02713
   R21        2.67980   0.00797   0.03312  -0.02441   0.00871   2.68851
   R22        1.98490   0.01931   0.06684  -0.03405   0.03279   2.01769
   R23        2.59325  -0.00351  -0.00819   0.00021  -0.00799   2.58526
   R24        2.03491  -0.00204  -0.00836   0.00450  -0.00387   2.03105
    A1        1.84592   0.00053   0.01432  -0.02637  -0.01204   1.83388
    A2        2.25670  -0.00389  -0.01397  -0.00231  -0.01626   2.24044
    A3        2.05953   0.00200   0.00336   0.00862   0.01201   2.07154
    A4        1.96684   0.00190   0.01065  -0.00625   0.00433   1.97117
    A5        2.00785   0.00078   0.01141  -0.01623  -0.00514   2.00272
    A6        2.05878   0.00857   0.02805   0.04179   0.06967   2.12844
    A7        2.20246  -0.00914  -0.03782  -0.01866  -0.05728   2.14518
    A8        2.09454  -0.00600  -0.02375   0.00185  -0.02190   2.07265
    A9        2.20566   0.00593   0.04097  -0.03900  -0.00131   2.20435
   A10        2.01356  -0.00157  -0.01587   0.02100   0.00189   2.01545
   A11        2.06396  -0.00436  -0.02485   0.01743  -0.01065   2.05331
   A12        1.79134  -0.00139  -0.00595  -0.00001  -0.00602   1.78532
   A13        1.95714   0.00029   0.00233  -0.00633  -0.00424   1.95289
   A14        1.96692  -0.00044  -0.00208  -0.00564  -0.00743   1.95949
   A15        1.92453   0.00027  -0.00066   0.00421   0.00353   1.92806
   A16        1.91735   0.00097   0.00429   0.00345   0.00772   1.92506
   A17        1.90412   0.00027   0.00181   0.00441   0.00616   1.91027
   A18        2.22206  -0.00035   0.00313  -0.00949  -0.00638   2.21568
   A19        2.22330  -0.00005  -0.00080   0.00123   0.00042   2.22372
   A20        1.83782   0.00040  -0.00233   0.00826   0.00596   1.84378
   A21        2.24231  -0.00140  -0.00454  -0.00184  -0.00650   2.23581
   A22        2.22209   0.00307   0.01838  -0.01427   0.00404   2.22613
   A23        1.81875  -0.00167  -0.01373   0.01591   0.00220   1.82095
   A24        2.07584  -0.00313  -0.00345  -0.01797  -0.02148   2.05436
   A25        1.91861   0.00004  -0.00252   0.00571   0.00323   1.92184
   A26        2.28858   0.00310   0.00610   0.01231   0.01836   2.30695
   A27        2.03588   0.00612   0.01682   0.01901   0.03579   2.07167
   A28        2.05858   0.01508   0.07180   0.01769   0.08947   2.14805
   A29        2.18848  -0.02118  -0.08854  -0.03648  -0.12505   2.06343
   A30        1.86443  -0.00071  -0.00930   0.01496   0.00561   1.87004
   A31        2.34328  -0.01665  -0.07415  -0.02352  -0.09807   2.24521
   A32        2.07154   0.01749   0.08478   0.00956   0.09442   2.16597
   A33        2.08446  -0.00350  -0.00412  -0.01956  -0.02369   2.06077
   A34        1.93499   0.00004  -0.01297   0.02789   0.01490   1.94989
   A35        2.26345   0.00347   0.01718  -0.00826   0.00891   2.27236
   A36        1.86082   0.00010   0.01049  -0.02221  -0.01172   1.84910
   A37        2.23601   0.00022  -0.00255   0.00782   0.00526   2.24126
   A38        2.18632  -0.00033  -0.00793   0.01443   0.00649   2.19282
    D1        3.12195   0.00083   0.00693  -0.00076   0.00522   3.12717
    D2       -0.00274   0.00007   0.00088  -0.00358  -0.00297  -0.00571
    D3        3.11807   0.00048   0.00377   0.00409   0.00776   3.12583
    D4       -0.00016   0.00001   0.00038   0.00132   0.00200   0.00185
    D5        0.03121  -0.00059  -0.00450  -0.00915  -0.01354   0.01767
    D6       -3.12729  -0.00018  -0.00164  -0.00394  -0.00570  -3.13298
    D7        3.11886   0.00032   0.00312  -0.00312  -0.00004   3.11883
    D8       -1.09919  -0.00003  -0.00002  -0.00116  -0.00136  -1.10054
    D9        1.05756   0.00021   0.00259  -0.00451  -0.00210   1.05546
   D10       -0.00655  -0.00008   0.00043  -0.00822  -0.00758  -0.01414
   D11        2.05858  -0.00043  -0.00271  -0.00626  -0.00890   2.04968
   D12       -2.06785  -0.00019  -0.00010  -0.00962  -0.00965  -2.07750
   D13       -0.02372   0.00077   0.00763  -0.00903  -0.00194  -0.02566
   D14        3.12623  -0.00005  -0.00186   0.01636   0.01449   3.14072
   D15        3.10369   0.00106   0.00977  -0.00465   0.00452   3.10822
   D16       -0.02954   0.00024   0.00028   0.02074   0.02095  -0.00858
   D17        3.07838  -0.00005  -0.00062   0.02183   0.02174   3.10012
   D18       -0.06509   0.00020   0.00047   0.02337   0.02397  -0.04112
   D19        0.10518  -0.00033  -0.00581  -0.01691  -0.02454   0.08063
   D20       -3.03829  -0.00008  -0.00472  -0.01536  -0.02231  -3.06060
   D21       -3.07276  -0.00110  -0.00962  -0.00305  -0.01210  -3.08485
   D22        0.06060  -0.00032  -0.00057  -0.02797  -0.02847   0.03213
   D23       -0.11564   0.00131   0.00453   0.04616   0.04896  -0.06668
   D24        3.01772   0.00209   0.01358   0.02124   0.03258   3.05030
   D25        3.12295   0.00115   0.01083  -0.00767   0.00238   3.12533
   D26       -0.04086   0.00130   0.01280   0.00220   0.01579  -0.02507
   D27       -3.13558  -0.00047  -0.01184   0.08187   0.07001  -3.06557
   D28       -0.02236   0.00003  -0.00833   0.08574   0.07697   0.05461
   D29        0.00241   0.00006   0.00848  -0.07769  -0.06876  -0.06635
   D30        3.11563   0.00056   0.01200  -0.07382  -0.06180   3.05382
   D31       -3.10277   0.00015   0.00021  -0.00649  -0.00690  -3.10967
   D32        0.04070  -0.00011  -0.00089  -0.00802  -0.00914   0.03156
   D33        1.09244   0.00045   0.00110  -0.00108  -0.00028   1.09216
   D34       -2.04728   0.00020   0.00000  -0.00262  -0.00252  -2.04980
   D35       -1.00678  -0.00067  -0.00345  -0.01143  -0.01525  -1.02203
   D36        2.13669  -0.00092  -0.00455  -0.01296  -0.01748   2.11921
   D37       -3.13115  -0.00023  -0.00255   0.00308   0.00045  -3.13070
   D38        0.03453  -0.00094  -0.00752  -0.00848  -0.01526   0.01927
   D39       -0.01065   0.00066   0.00483   0.00642   0.01051  -0.00014
   D40       -3.12816  -0.00005  -0.00015  -0.00514  -0.00520  -3.13336
   D41        0.00448  -0.00013  -0.00185   0.00451   0.00286   0.00734
   D42        3.04580   0.00283   0.02129   0.01849   0.03715   3.08295
   D43       -3.11747  -0.00093  -0.00869   0.00164  -0.00637  -3.12385
   D44       -0.07615   0.00204   0.01446   0.01562   0.02792  -0.04823
   D45       -0.00443   0.00012   0.00194  -0.00349  -0.00151  -0.00594
   D46        3.12890   0.00015   0.00270   0.00165   0.00509   3.13398
   D47       -3.06421  -0.00018  -0.00562  -0.01257  -0.02109  -3.08530
   D48        0.06912  -0.00015  -0.00487  -0.00744  -0.01450   0.05462
   D49        0.00286  -0.00009  -0.00147   0.00135  -0.00034   0.00252
   D50       -3.13077  -0.00012  -0.00223  -0.00357  -0.00670  -3.13746
   D51       -3.11228  -0.00050  -0.00483  -0.00169  -0.00645  -3.11873
   D52        0.03727  -0.00053  -0.00559  -0.00660  -0.01280   0.02447
         Item               Value     Threshold  Converged?
 Maximum Force            0.062325     0.000450     NO 
 RMS     Force            0.008183     0.000300     NO 
 Maximum Displacement     0.329884     0.001800     NO 
 RMS     Displacement     0.084583     0.001200     NO 
 Predicted change in Energy=-2.149732D-02
 GradGradGradGradGradGradGradGradGradGradGradGradGradGradGradGradGradGrad

                          Input orientation:                          
 ---------------------------------------------------------------------
 Center     Atomic      Atomic             Coordinates (Angstroms)
 Number     Number       Type             X           Y           Z
 ---------------------------------------------------------------------
      1          8           0        6.153888   -5.099054   -5.506187
      2          8           0        7.062799  -12.368357   -3.529394
      3          8           0       10.541285   -9.706915   -5.088140
      4          8           0        5.916258   -1.723733   -6.545661
      5          8           0        4.327809   -3.184535   -5.771105
      6          7           0        8.251673   -9.243697   -4.701825
      7          7           0        9.018082  -11.283465   -4.217157
      8          7           0        8.321601   -7.947512   -5.132663
      9          7           0        5.533216   -2.846578   -6.041166
     10          6           0        7.076317   -9.981868   -4.215551
     11          6           0        7.661925  -11.378925   -3.928163
     12          6           0        9.429692  -10.027499   -4.712247
     13          6           0        7.320461   -5.860167   -5.546735
     14          6           0        7.241581   -7.223000   -5.114467
     15          6           0        8.369847   -5.095308   -6.011352
     16          6           0        6.527545   -3.843220   -5.953965
     17          6           0        7.857922   -3.793124   -6.268888
     18          1           0        6.667679   -9.541512   -3.298738
     19          1           0        6.286181  -10.049121   -4.971626
     20          1           0        9.600595  -12.046503   -4.180638
     21          1           0        6.288790   -7.600355   -4.797454
     22          1           0        9.397810   -5.365357   -6.113254
     23          1           0        8.383043   -2.929194   -6.633624
 ---------------------------------------------------------------------
                    Distance matrix (angstroms):
                    1          2          3          4          5
     1  O    0.000000
     2  O    7.587924   0.000000
     3  O    6.376237   4.648960   0.000000
     4  O    3.539741  11.122969   9.340580   0.000000
     5  O    2.658971   9.841139   9.034111   2.292826   0.000000
     6  N    4.714421   3.542812   2.367728   8.087259   7.297500
     7  N    6.936292   2.339474   2.358871  10.316575   9.487153
     8  N    3.598918   4.868154   2.832751   6.820386   6.248514
     9  N    2.396891   9.965586   8.547118   1.289192   1.280685
    10  C    5.134052   2.483208   3.583716   8.658634   7.495184
    11  C    6.648392   1.223497   3.525888  10.154870   9.036636
    12  C    5.970830   3.532837   1.216433   9.200987   8.600962
    13  C    1.393496   6.818548   5.038004   4.481041   4.020611
[...]
    13  C    3.614826   5.837747   2.357418   3.545099   4.328507
    14  C    2.291832   4.511331   1.296526   4.787448   2.894784
    15  C    4.385695   6.514491   3.014028   3.625283   5.379302
    16  C    5.815144   8.041735   4.570416   1.407082   6.382646
    17  C    5.707909   7.880714   4.353728   2.521167   6.563232
    18  H    2.139141   3.072526   2.936496   7.273674   1.095528
    19  H    2.139193   3.072795   2.936932   7.274243   1.095496
    20  H    3.195695   1.013433   4.441233  10.270571   3.315777
    21  H    2.594810   4.643516   2.119886   4.910813   2.593576
    22  H    4.273924   6.228633   2.943354   4.646255   5.481997
    23  H    6.637080   8.763553   5.266676   2.906151   7.572856
                   11         12         13         14         15
    11  C    0.000000
    12  C    2.364945   0.000000
    13  C    5.759506   4.752659   0.000000
    14  C    4.335137   3.572685   1.433988   0.000000
    15  C    6.687095   5.254525   1.379300   2.581257   0.000000
    16  C    7.874660   6.964273   2.214257   3.559285   2.236894
    17  C    7.952853   6.654343   2.252248   3.673645   1.422518
    18  H    2.179662   3.145774   4.344595   2.982989   5.483622
    19  H    2.179860   3.145795   4.345060   2.983557   5.483926
    20  H    2.122061   2.126766   6.780311   5.487517   7.372092
    21  H    4.135160   3.999689   2.139957   1.087992   3.470614
    22  H    6.622653   4.874068   2.183262   2.983307   1.075362
    23  H    8.924447   7.482027   3.299139   4.699975   2.253326
                   16         17         18         19         20
    16  C    0.000000
    17  C    1.369027   0.000000
    18  H    6.257361   6.564904   0.000000
    19  H    6.257868   6.565298   1.791146   0.000000
    20  H    8.992140   8.762247   4.004616   4.004845   0.000000
    21  H    3.891711   4.340425   2.481163   2.481697   5.655237
    22  H    3.283280   2.248955   5.704678   5.704818   6.994994
    23  H    2.171967   1.074147   7.594911   7.595283   9.606197
                   21         22         23
    21  H    0.000000
    22  H    4.018400   0.000000
    23  H    5.407927   2.750443   0.000000
 Stoichiometry    C8H6N4O5
 Framework group  C1[X(C8H6N4O5)]
 Deg. of freedom    63
 Full point group                 C1      NOp   1
 Largest Abelian subgroup         C1      NOp   1
 Largest concise Abelian subgroup C1      NOp   1
                         Standard orientation:                         
 ---------------------------------------------------------------------
 Center     Atomic      Atomic             Coordinates (Angstroms)
 Number     Number       Type             X           Y           Z
 ---------------------------------------------------------------------
      1          8           0       -2.289863   -0.628968   -0.000035
      2          8           0        5.130953   -2.004661   -0.000193
      3          8           0        3.381776    2.312647    0.000598
      4          8           0       -5.750589    0.124268    0.000145
      5          8           0       -4.630041   -1.892401    0.000456
      6          7           0        2.343900    0.184940   -0.000402
      7          7           0        4.569279    0.270315    0.000512
      8          7           0        1.062485    0.678945   -0.000036
      9          7           0       -4.687682   -0.610384    0.000205
     10          6           0        2.774831   -1.220888   -0.000407
     11          6           0        4.313669   -1.094335    0.000212
     12          6           0        3.421514    1.095876   -0.000162
     13          6           0       -1.268211    0.325004   -0.000169
     14          6           0        0.079097   -0.165998   -0.000047
     15          6           0       -1.809374    1.593709   -0.000469
     16          6           0       -3.470558    0.095656   -0.000037
     17          6           0       -3.223807    1.442262   -0.000284
     18          1           0        2.439341   -1.755393    0.895100
     19          1           0        2.439755   -1.755364   -0.896047
     20          1           0        5.503688    0.662650    0.000787
     21          1           0        0.181408   -1.249168   -0.000247
     22          1           0       -1.243471    2.508125   -0.000807
     23          1           0       -3.977451    2.207645   -0.000315
 ---------------------------------------------------------------------
 Rotational constants (GHZ):      1.4371219      0.1631166      0.1466271

 **********************************************************************

            Population analysis using the SCF density.

 **********************************************************************

 Orbital symmetries:
       Occupied  (A) (A) (A) (A) (A) (A) (A) (A) (A) (A) (A) (A)
                 (A) (A) (A) (A) (A) (A) (A) (A) (A) (A) (A) (A)
                 (A) (A) (A) (A) (A) (A) (A) (A) (A) (A) (A) (A)
                 (A) (A) (A) (A) (A) (A) (A) (A) (A) (A) (A) (A)
                 (A) (A) (A) (A) (A) (A) (A) (A) (A) (A) (A) (A)
                 (A)
       Virtual   (A) (A) (A) (A) (A) (A) (A) (A) (A) (A) (A) (A)
                 (A) (A) (A) (A) (A) (A) (A) (A) (A) (A) (A) (A)
                 (A) (A) (A) (A) (A) (A) (A) (A) (A) (A) (A) (A)
                 (A) (A) (A) (A) (A) (A) (A) (A) (A) (A) (A) (A)
                 (A) (A) (A) (A) (A) (A) (A) (A) (A) (A) (A) (A)
                 (A) (A) (A) (A) (A) (A) (A) (A) (A) (A) (A) (A)
                 (A) (A) (A) (A) (A) (A) (A) (A) (A) (A) (A) (A)
                 (A) (A) (A) (A) (A) (A) (A) (A) (A) (A) (A) (A)
                 (A) (A) (A) (A) (A) (A) (A) (A)
 The electronic state is 1-A.
 Alpha  occ. eigenvalues --  -19.16130 -19.06969 -19.06713 -19.06037 -19.05275
 Alpha  occ. eigenvalues --  -14.48694 -14.36798 -14.34043 -14.33486 -10.30343
 Alpha  occ. eigenvalues --  -10.28564 -10.25881 -10.23782 -10.22048 -10.21136
 Alpha  occ. eigenvalues --  -10.18020 -10.17053  -1.20504  -1.15934  -1.11820
 Alpha  occ. eigenvalues --   -1.09029  -1.05690  -1.03620  -0.99439  -0.90179
 Alpha  occ. eigenvalues --   -0.86049  -0.84101  -0.79416  -0.75242  -0.68688
 Alpha  occ. eigenvalues --   -0.66526  -0.66058  -0.60511  -0.59297  -0.57367
 Alpha  occ. eigenvalues --   -0.55156  -0.54740  -0.54587  -0.53545  -0.51131
 Alpha  occ. eigenvalues --   -0.49480  -0.49030  -0.47780  -0.45729  -0.45475
 Alpha  occ. eigenvalues --   -0.45473  -0.44812  -0.44144  -0.44016  -0.41368
 Alpha  occ. eigenvalues --   -0.39342  -0.32492  -0.32406  -0.31036  -0.30910
 Alpha  occ. eigenvalues --   -0.30652  -0.29266  -0.28787  -0.28323  -0.28191
 Alpha  occ. eigenvalues --   -0.24487
 Alpha virt. eigenvalues --   -0.11009  -0.06089  -0.03184   0.03054   0.04641
 Alpha virt. eigenvalues --    0.06961   0.07596   0.07817   0.09775   0.11130
 Alpha virt. eigenvalues --    0.12075   0.13249   0.15442   0.15674   0.17011
 Alpha virt. eigenvalues --    0.18058   0.18837   0.19980   0.22414   0.23781
 Alpha virt. eigenvalues --    0.26152   0.29538   0.30721   0.34711   0.38131
 Alpha virt. eigenvalues --    0.38228   0.38980   0.43059   0.44881   0.50060
 Alpha virt. eigenvalues --    0.62676   0.63593   0.65493   0.66200   0.66354
 Alpha virt. eigenvalues --    0.68481   0.69288   0.71092   0.71808   0.72955
 Alpha virt. eigenvalues --    0.74420   0.75592   0.75730   0.75951   0.76431
 Alpha virt. eigenvalues --    0.77503   0.78328   0.82297   0.87166   0.87477
 Alpha virt. eigenvalues --    0.90925   0.95326   0.97139   0.99565   1.04440
 Alpha virt. eigenvalues --    1.06347   1.07095   1.08062   1.08868   1.08962
 Alpha virt. eigenvalues --    1.12436   1.17566   1.17812   1.21456   1.25670
 Alpha virt. eigenvalues --    1.26981   1.28451   1.33423   1.36320   1.38274
 Alpha virt. eigenvalues --    1.40409   1.42990   1.46419   1.47788   1.50042
 Alpha virt. eigenvalues --    1.53331   1.54276   1.54746   1.55262   1.55468
 Alpha virt. eigenvalues --    1.57559   1.58300   1.59391   1.62155   1.63204
 Alpha virt. eigenvalues --    1.64779   1.68378   1.71243   1.76226   1.78334
 Alpha virt. eigenvalues --    1.79450   1.89563   1.94488   1.99168   2.22624
 Alpha virt. eigenvalues --    2.55094   2.65148   2.73509   2.81385   2.85175
 Alpha virt. eigenvalues --    2.87156   3.31266   3.35590   3.44973
          Condensed to atoms (all electrons):
               1          2          3          4          5          6
     1  O    8.173704   0.000000   0.000000   0.000301   0.000310  -0.000002
     2  O    0.000000   7.991418  -0.000001   0.000000   0.000000   0.000606
     3  O    0.000000  -0.000001   7.969734   0.000000   0.000000  -0.058655
     4  O    0.000301   0.000000   0.000000   8.234395  -0.047743   0.000000
     5  O    0.000310   0.000000   0.000000  -0.047743   8.237237   0.000000
     6  N   -0.000002   0.000606  -0.058655   0.000000   0.000000   7.407312
     7  N    0.000000  -0.062598  -0.057286   0.000000   0.000000  -0.105842
     8  N    0.000606  -0.000001   0.000820   0.000000   0.000000   0.218329
     9  N   -0.020320   0.000000   0.000000   0.188248   0.155826   0.000000
    10  C    0.000001  -0.070776   0.000802   0.000000   0.000000   0.140798
    11  C    0.000000   0.592780  -0.000216   0.000000   0.000000  -0.008859
    12  C    0.000000   0.000013   0.599848   0.000000   0.000000   0.097305
    13  C    0.268438   0.000000   0.000000  -0.000031   0.000254   0.005973
    14  C   -0.021956   0.000000   0.000140   0.000000   0.000003  -0.090244
    15  C   -0.081671   0.000000   0.000000   0.000354  -0.000063  -0.000112
    16  C    0.276090   0.000000   0.000000  -0.091709  -0.066201   0.000000
    17  C   -0.088176   0.000000   0.000000   0.012537   0.003120  -0.000001
    18  H    0.000000   0.000258  -0.000003   0.000000   0.000000  -0.036034
    19  H    0.000000   0.000257  -0.000003   0.000000   0.000000  -0.036028
    20  H    0.000000   0.000603   0.000564   0.000000   0.000000   0.002855
    21  H    0.001042   0.000001  -0.000002   0.000000   0.000000  -0.009578
    22  H    0.001577   0.000000   0.000000   0.000000   0.000000  -0.000017
    23  H    0.001661   0.000000   0.000000   0.004661   0.000016   0.000000
               7          8          9         10         11         12
     1  O    0.000000   0.000606  -0.020320   0.000001   0.000000   0.000000
     2  O   -0.062598  -0.000001   0.000000  -0.070776   0.592780   0.000013
     3  O   -0.057286   0.000820   0.000000   0.000802  -0.000216   0.599848
     4  O    0.000000   0.000000   0.188248   0.000000   0.000000   0.000000
     5  O    0.000000   0.000000   0.155826   0.000000   0.000000   0.000000
     6  N   -0.105842   0.218329   0.000000   0.140798  -0.008859   0.097305
     7  N    7.577453   0.001697   0.000000  -0.140850   0.104687   0.130597
     8  N    0.001697   6.788699   0.000000  -0.023321   0.001348  -0.042810
     9  N    0.000000   0.000000   6.712011   0.000000   0.000000   0.000000
    10  C   -0.140850  -0.023321   0.000000   5.593700   0.136020  -0.066606
    11  C    0.104687   0.001348   0.000000   0.136020   4.649627  -0.058046
    12  C    0.130597  -0.042810   0.000000  -0.066606  -0.058046   4.409624
    13  C    0.000000  -0.090849  -0.001894  -0.000702  -0.000002  -0.000045
    14  C   -0.000078   0.460467  -0.000054  -0.011162   0.000249   0.005420
    15  C    0.000000   0.000791   0.005118   0.000010   0.000000   0.000004
    16  C    0.000000  -0.000066   0.020474   0.000000   0.000000   0.000000
    17  C    0.000000   0.000236  -0.054930   0.000000   0.000000   0.000000
    18  H    0.001988   0.000012   0.000000   0.349664  -0.029684   0.001391
    19  H    0.001989   0.000015   0.000000   0.349713  -0.029689   0.001380
    20  H    0.318582  -0.000013   0.000000   0.005125  -0.016251  -0.020583
    21  H    0.000009  -0.049484  -0.000003   0.010165  -0.000105  -0.000381
    22  H    0.000000   0.002051  -0.000004   0.000001   0.000000   0.000002
    23  H    0.000000   0.000000  -0.003352   0.000000   0.000000   0.000000
              13         14         15         16         17         18
     1  O    0.268438  -0.021956  -0.081671   0.276090  -0.088176   0.000000
     2  O    0.000000   0.000000   0.000000   0.000000   0.000000   0.000258
     3  O    0.000000   0.000140   0.000000   0.000000   0.000000  -0.000003
     4  O   -0.000031   0.000000   0.000354  -0.091709   0.012537   0.000000
     5  O    0.000254   0.000003  -0.000063  -0.066201   0.003120   0.000000
     6  N    0.005973  -0.090244  -0.000112   0.000000  -0.000001  -0.036034
     7  N    0.000000  -0.000078   0.000000   0.000000   0.000000   0.001988
     8  N   -0.090849   0.460467   0.000791  -0.000066   0.000236   0.000012
     9  N   -0.001894  -0.000054   0.005118   0.020474  -0.054930   0.000000
    10  C   -0.000702  -0.011162   0.000010   0.000000   0.000000   0.349664
    11  C   -0.000002   0.000249   0.000000   0.000000   0.000000  -0.029684
    12  C   -0.000045   0.005420   0.000004   0.000000   0.000000   0.001391
    13  C    5.186033   0.329366   0.316233  -0.161332  -0.075507  -0.000003
    14  C    0.329366   5.011044  -0.067604  -0.000463   0.007265   0.002329
    15  C    0.316233  -0.067604   5.411420  -0.074003   0.324639  -0.000001
    16  C   -0.161332  -0.000463  -0.074003   5.251515   0.216778   0.000000
    17  C   -0.075507   0.007265   0.324639   0.216778   5.468233   0.000000
    18  H   -0.000003   0.002329  -0.000001   0.000000   0.000000   0.473963
    19  H   -0.000003   0.002327  -0.000001   0.000000   0.000000  -0.030450
    20  H    0.000000   0.000001   0.000000   0.000000   0.000000  -0.000062
    21  H   -0.065684   0.324394   0.005072  -0.000192  -0.000011   0.000054
    22  H   -0.028451  -0.001347   0.384315   0.004956  -0.025270   0.000000
    23  H    0.004978  -0.000019  -0.023189  -0.033569   0.378356   0.000000
              19         20         21         22         23
     1  O    0.000000   0.000000   0.001042   0.001577   0.001661
     2  O    0.000257   0.000603   0.000001   0.000000   0.000000
     3  O   -0.000003   0.000564  -0.000002   0.000000   0.000000
     4  O    0.000000   0.000000   0.000000   0.000000   0.004661
     5  O    0.000000   0.000000   0.000000   0.000000   0.000016
     6  N   -0.036028   0.002855  -0.009578  -0.000017   0.000000
     7  N    0.001989   0.318582   0.000009   0.000000   0.000000
     8  N    0.000015  -0.000013  -0.049484   0.002051   0.000000
     9  N    0.000000   0.000000  -0.000003  -0.000004  -0.003352
    10  C    0.349713   0.005125   0.010165   0.000001   0.000000
    11  C   -0.029689  -0.016251  -0.000105   0.000000   0.000000
    12  C    0.001380  -0.020583  -0.000381   0.000002   0.000000
    13  C   -0.000003   0.000000  -0.065684  -0.028451   0.004978
    14  C    0.002327   0.000001   0.324394  -0.001347  -0.000019
    15  C   -0.000001   0.000000   0.005072   0.384315  -0.023189
    16  C    0.000000   0.000000  -0.000192   0.004956  -0.033569
    17  C    0.000000   0.000000  -0.000011  -0.025270   0.378356
    18  H   -0.030450  -0.000062   0.000054   0.000000   0.000000
    19  H    0.473915  -0.000062   0.000052   0.000000   0.000000
    20  H   -0.000062   0.352763   0.000000   0.000000   0.000000
    21  H    0.000052   0.000000   0.559524   0.000038   0.000000
    22  H    0.000000   0.000000   0.000038   0.428968  -0.000917
    23  H    0.000000   0.000000   0.000000  -0.000917   0.429465
 Mulliken charges:
               1
     1  O   -0.511603
     2  O   -0.452560
     3  O   -0.455742
     4  O   -0.301013
     5  O   -0.282759
     6  N   -0.527807
     7  N   -0.770350
     8  N   -0.268526
     9  N   -0.001119
    10  C   -0.272581
    11  C    0.658140
    12  C    0.942886
    13  C    0.313227
    14  C    0.049924
    15  C   -0.201311
    16  C    0.657722
    17  C   -0.167268
    18  H    0.266579
    19  H    0.266589
    20  H    0.356478
    21  H    0.225089
    22  H    0.234098
    23  H    0.241908
 Sum of Mulliken charges =   0.00000
 Mulliken charges with hydrogens summed into heavy atoms:
               1
     1  O   -0.511603
     2  O   -0.452560
     3  O   -0.455742
     4  O   -0.301013
     5  O   -0.282759
     6  N   -0.527807
     7  N   -0.413872
     8  N   -0.268526
     9  N   -0.001119
    10  C    0.260587
    11  C    0.658140
    12  C    0.942886
    13  C    0.313227
    14  C    0.275013
    15  C    0.032786
    16  C    0.657722
    17  C    0.074640
 Electronic spatial extent (au):  <R**2>=           6535.7858
 Charge=              0.0000 electrons
 Dipole moment (field-independent basis, Debye):
    X=              3.8069    Y=              0.7858    Z=             -0.0016  Tot=              3.8872
 Quadrupole moment (field-independent basis, Debye-Ang):
   XX=           -119.5141   YY=           -103.6336   ZZ=            -93.0951
   XY=             -8.6624   XZ=              0.0031   YZ=             -0.0030
 Traceless Quadrupole moment (field-independent basis, Debye-Ang):
   XX=            -14.0998   YY=              1.7807   ZZ=             12.3191
   XY=             -8.6624   XZ=              0.0031   YZ=             -0.0030
 Octapole moment (field-independent basis, Debye-Ang**2):
  XXX=            173.0713  YYY=             -0.7342  ZZZ=              0.0065  XYY=            -42.4027
  XXY=             94.1731  XXZ=              0.0020  XZZ=              0.1268  YZZ=             -8.1192
  YYZ=             -0.0110  XYZ=             -0.0129
 Hexadecapole moment (field-independent basis, Debye-Ang**3):
 XXXX=          -8005.5641 YYYY=           -920.0886 ZZZZ=            -84.2051 XXXY=            250.7205
 XXXZ=              0.1946 YYYX=            -47.2600 YYYZ=             -0.0195 ZZZX=             -0.0185
 ZZZY=              0.0104 XXYY=          -1568.1040 XXZZ=          -1152.0272 YYZZ=           -155.6138
 XXYZ=             -0.0181 YYXZ=              0.0044 ZZXY=             18.0563
 N-N= 1.104453957932D+03 E-N=-4.307750688703D+03  KE= 8.912943841720D+02
 1\1\GINC-NODE045\FOpt\RB3LYP\3-21G\C8H6N4O5\SUPERCOMPUTO1\06-Jul-2020\
 0\\# opt b3lyp/3-21g geom=connectivity\\Title Card Required\\0,1\O,6.1
 73208356,-5.1149698304,-5.5209646316\O,7.0161376232,-12.3380903782,-3.
 5017954167\O,10.5579839154,-9.7378841641,-5.0487355181\O,5.8847364491,
 -1.7213105602,-6.4924856835\O,4.3176065211,-3.2184598227,-5.7017695739
 \N,8.2665781616,-9.2493818806,-4.7093930483\N,8.9859680427,-11.3032952
 723,-4.2366151586\N,8.3613163022,-7.9443709208,-5.1265729317\N,5.50189
 85759,-2.8767020107,-6.058905502\C,7.073485792,-9.9668282801,-4.236262
 3975\C,7.6341812974,-11.3719286984,-3.9274717645\C,9.4294648777,-10.04
 85871449,-4.7140389207\C,7.3602583229,-5.8524701908,-5.5499552917\C,7.
 2873590119,-7.2180579924,-5.1184727314\C,8.3931792686,-5.063225787,-6.
 0110803211\C,6.5128302095,-3.8520738967,-5.9779895115\C,7.8450598494,-
 3.7793977838,-6.2847731512\H,6.6556094736,-9.5188190359,-3.3280502802\
 H,6.2973748882,-10.0303648402,-5.00679821\H,9.6219393659,-12.085620397
 9,-4.1338828521\H,6.3020740867,-7.5568742296,-4.8051946911\H,9.4122232
 324,-5.3850583859,-6.1309865518\H,8.3455263765,-2.9052284963,-6.657805
 8607\\Version=ES64L-G09RevD.01\State=1-A\HF=-898.4225438\RMSD=4.599e-0
 9\RMSF=4.617e-05\Dipole=0.7197045,-1.3261309,0.2494792\Quadrupole=-2.8
 029526,-5.5912559,8.3942085,8.8111296,-0.1307834,2.6073357\PG=C01 [X(C
 8H6N4O5)]\\@


 There was a great rattling of the words for the fewness of ideas.
                   -- Charles Baxter in Gryphon
 Job cpu time:       0 days  0 hours 25 minutes 50.4 seconds.
 File lengths (MBytes):  RWF=     19 Int=      0 D2E=      0 Chk=      3 Scr=      1
 Normal termination of Gaussian 09 at Mon Jul  6 10:42:44 2020.
 minutes 51.9 seconds.
 File lengths (MBytes):  RWF=     19 Int=      0 D2E=      0 Chk=      3 Scr=      1
 Normal termination of Gaussian 09 at Mon Jul  6 10:41:50 2020.
