 Entering Gaussian System, Link 0=g09
 Input=fleroxacino.gjf
 Output=fleroxacino.log
 Initial command:
 /usr/local/cluster_programs/g09/l1.exe "/tmp/scratch/63925.prometeo/Gau-2574.inp" -scrdir="/tmp/scratch/63925.prometeo/"
 Entering Link 1 = /usr/local/cluster_programs/g09/l1.exe PID=      2575.
  
 Copyright (c) 1988,1990,1992,1993,1995,1998,2003,2009,2013,
            Gaussian, Inc.  All Rights Reserved.
  
 This is part of the Gaussian(R) 09 program.  It is based on
 the Gaussian(R) 03 system (copyright 2003, Gaussian, Inc.),
 the Gaussian(R) 98 system (copyright 1998, Gaussian, Inc.),
 the Gaussian(R) 94 system (copyright 1995, Gaussian, Inc.),
 the Gaussian 92(TM) system (copyright 1992, Gaussian, Inc.),
 the Gaussian 90(TM) system (copyright 1990, Gaussian, Inc.),
 the Gaussian 88(TM) system (copyright 1988, Gaussian, Inc.),
 the Gaussian 86(TM) system (copyright 1986, Carnegie Mellon
 University), and the Gaussian 82(TM) system (copyright 1983,
 Carnegie Mellon University). Gaussian is a federally registered
 trademark of Gaussian, Inc.
  
 This software contains proprietary and confidential information,
 including trade secrets, belonging to Gaussian, Inc.
  
 This software is provided under written license and may be
 used, copied, transmitted, or stored only in accord with that
 written license.
  
 The following legend is applicable only to US Government
 contracts under FAR:
  
                    RESTRICTED RIGHTS LEGEND
  
 Use, reproduction and disclosure by the US Government is
 subject to restrictions as set forth in subparagraphs (a)
 and (c) of the Commercial Computer Software - Restricted
 Rights clause in FAR 52.227-19.
  
 Gaussian, Inc.
 340 Quinnipiac St., Bldg. 40, Wallingford CT 06492
  
  
 ---------------------------------------------------------------
 Warning -- This program may not be used in any manner that
 competes with the business of Gaussian, Inc. or will provide
 assistance to any competitor of Gaussian, Inc.  The licensee
 of this program is prohibited from giving any competitor of
 Gaussian, Inc. access to this program.  By using this program,
 the user acknowledges that Gaussian, Inc. is engaged in the
 business of creating and licensing software in the field of
 computational chemistry and represents and warrants to the
 licensee that it is not a competitor of Gaussian, Inc. and that
 it will not use this program in any manner prohibited above.
 ---------------------------------------------------------------
  

 Cite this work as:
 Gaussian 09, Revision D.01,
 M. J. Frisch, G. W. Trucks, H. B. Schlegel, G. E. Scuseria, 
 M. A. Robb, J. R. Cheeseman, G. Scalmani, V. Barone, B. Mennucci, 
 G. A. Petersson, H. Nakatsuji, M. Caricato, X. Li, H. P. Hratchian, 
 A. F. Izmaylov, J. Bloino, G. Zheng, J. L. Sonnenberg, M. Hada, 
 M. Ehara, K. Toyota, R. Fukuda, J. Hasegawa, M. Ishida, T. Nakajima, 
 Y. Honda, O. Kitao, H. Nakai, T. Vreven, J. A. Montgomery, Jr., 
 J. E. Peralta, F. Ogliaro, M. Bearpark, J. J. Heyd, E. Brothers, 
 K. N. Kudin, V. N. Staroverov, T. Keith, R. Kobayashi, J. Normand, 
 K. Raghavachari, A. Rendell, J. C. Burant, S. S. Iyengar, J. Tomasi, 
 M. Cossi, N. Rega, J. M. Millam, M. Klene, J. E. Knox, J. B. Cross, 
 V. Bakken, C. Adamo, J. Jaramillo, R. Gomperts, R. E. Stratmann, 
 O. Yazyev, A. J. Austin, R. Cammi, C. Pomelli, J. W. Ochterski, 
 R. L. Martin, K. Morokuma, V. G. Zakrzewski, G. A. Voth, 
 P. Salvador, J. J. Dannenberg, S. Dapprich, A. D. Daniels, 
 O. Farkas, J. B. Foresman, J. V. Ortiz, J. Cioslowski, 
 and D. J. Fox, Gaussian, Inc., Wallingford CT, 2013.
 
 ******************************************
 Gaussian 09:  ES64L-G09RevD.01 24-Apr-2013
                 6-Jul-2020 
 ******************************************
 %nprocshared=20
 Will use up to   20 processors via shared memory.
 -----------------------------------
 # opt b3lyp/3-21g geom=connectivity
 -----------------------------------
 1/14=-1,18=20,19=15,26=3,38=1,57=2/1,3;
 2/9=110,12=2,17=6,18=5,40=1/2;
 3/5=5,11=2,16=1,25=1,30=1,71=1,74=-5/1,2,3;
 4//1;
 5/5=2,38=5/2;
 6/7=2,8=2,9=2,10=2,28=1/1;
 7//1,2,3,16;
 1/14=-1,18=20,19=15,26=3/3(2);
 2/9=110/2;
 99//99;
 2/9=110/2;
 3/5=5,11=2,16=1,25=1,30=1,71=1,74=-5/1,2,3;
 4/5=5,16=3,69=1/1;
 5/5=2,38=5/2;
 7//1,2,3,16;
 1/14=-1,18=20,19=15,26=3/3(-5);
 2/9=110/2;
 6/7=2,8=2,9=2,10=2,19=2,28=1/1;
 99/9=1/99;
 -------------------
 Title Card Required
 -------------------
 Symbolic Z-matrix:
 Charge =  0 Multiplicity = 1
 F(PDBName=F1,ResName=MOL,ResNum=1) 0    -8.066     9.829     7.628    L 
 F(PDBName=F2,ResName=MOL,ResNum=1) 0    -8.925     5.225     6.908    L 
 F(PDBName=F3,ResName=MOL,ResNum=1) 0    -4.741     11.812    5.895    L 
 O(PDBName=O4,ResName=MOL,ResNum=1) 0    -3.981     5.455     6.875    L 
 O(PDBName=O5,ResName=MOL,ResNum=1) 0    -1.469     6.551     6.416    L 
 O(PDBName=O6,ResName=MOL,ResNum=1) 0    -1.235     8.752     6.902    L 
 N(PDBName=N7,ResName=MOL,ResNum=1) 0    -9.899     7.863     7.239    L 
 N(PDBName=N8,ResName=MOL,ResNum=1) 0    -12.506    8.87      7.729    L 
 N(PDBName=N9,ResName=MOL,ResNum=1) 0    -5.227     9.349     7.5      L 
 C(PDBName=C10,ResName=MOL,ResNum=1) 0    -10.462    8.91      6.387    L 
 C(PDBName=C11,ResName=MOL,ResNum=1) 0    -10.909    6.994     7.831    L 
 C(PDBName=C12,ResName=MOL,ResNum=1) 0    -11.476    9.736     7.165    L 
 C(PDBName=C13,ResName=MOL,ResNum=1) 0    -11.919    7.849     8.589    L 
 C(PDBName=C14,ResName=MOL,ResNum=1) 0    -8.552     7.557     7.239    L 
 C(PDBName=C15,ResName=MOL,ResNum=1) 0    -6.195     8.338     7.357    L 
 C(PDBName=C16,ResName=MOL,ResNum=1) 0    -7.579     8.559     7.403    L 
 C(PDBName=C17,ResName=MOL,ResNum=1) 0    -13.535    9.633     8.42     L 
 C(PDBName=C18,ResName=MOL,ResNum=1) 0    -8.036     6.248     7.091    L 
 C(PDBName=C19,ResName=MOL,ResNum=1) 0    -5.754     7.007     7.157    L 
 C(PDBName=C20,ResName=MOL,ResNum=1) 0    -6.694     5.976     7.052    L 
 C(PDBName=C21,ResName=MOL,ResNum=1) 0    -5.534     10.739    7.883    L 
 C(PDBName=C22,ResName=MOL,ResNum=1) 0    -4.323     6.644     6.999    L 
 C(PDBName=C23,ResName=MOL,ResNum=1) 0    -3.921     9.042     7.29     L 
 C(PDBName=C24,ResName=MOL,ResNum=1) 0    -3.425     7.792     7.008    L 
 C(PDBName=C25,ResName=MOL,ResNum=1) 0    -5.876     11.647    6.719    L 
 C(PDBName=C26,ResName=MOL,ResNum=1) 0    -1.966     7.76      6.784    L 
 H(PDBName=H27,ResName=MOL,ResNum=1) 0    -9.664     9.548     5.994    L 
 H(PDBName=H28,ResName=MOL,ResNum=1) 0    -10.972    8.434     5.526    L 
 H(PDBName=H29,ResName=MOL,ResNum=1) 0    -11.428    6.398     7.057    L 
 H(PDBName=H30,ResName=MOL,ResNum=1) 0    -10.429    6.299     8.529    L 
 H(PDBName=H31,ResName=MOL,ResNum=1) 0    -10.942    10.307    7.962    L 
 H(PDBName=H32,ResName=MOL,ResNum=1) 0    -11.956    10.467    6.497    L 
 H(PDBName=H33,ResName=MOL,ResNum=1) 0    -12.726    7.202     8.965    L 
 H(PDBName=H34,ResName=MOL,ResNum=1) 0    -11.413    8.306     9.472    L 
 H(PDBName=H35,ResName=MOL,ResNum=1) 0    -14.326    8.959     8.771    L 
 H(PDBName=H36,ResName=MOL,ResNum=1) 0    -13.995    10.345    7.723    L 
 H(PDBName=H37,ResName=MOL,ResNum=1) 0    -13.13     10.196    9.291    L 
 H(PDBName=H38,ResName=MOL,ResNum=1) 0    -6.321     4.965     6.883    L 
 H(PDBName=H39,ResName=MOL,ResNum=1) 0    -6.352     10.753    8.61     L 
 H(PDBName=H40,ResName=MOL,ResNum=1) 0    -4.641     11.132    8.387    L 
 H(PDBName=H41,ResName=MOL,ResNum=1) 0    -3.221     9.875     7.353    L 
 H(PDBName=H42,ResName=MOL,ResNum=1) 0    -6.682     11.244    6.091    L 
 H(PDBName=H43,ResName=MOL,ResNum=1) 0    -6.163     12.643    7.095    L 
 H(PDBName=H44,ResName=MOL,ResNum=1) 0    -0.502     6.704     6.299    L 
 
 Center=     -7.88790909      8.58895455      7.36297727
 Residue   1 PDB Number     1_0 MOL charge    0.00000000 layers R        AvRTP=      0.00000000      0.00000000      0.00000000

 GradGradGradGradGradGradGradGradGradGradGradGradGradGradGradGradGradGrad
 Berny optimization.
 Initialization pass.
                           ----------------------------
                           !    Initial Parameters    !
                           ! (Angstroms and Degrees)  !
 --------------------------                            --------------------------
 ! Name  Definition              Value          Derivative Info.                !
 --------------------------------------------------------------------------------
 ! R1    R(1,16)                 1.3787         estimate D2E/DX2                !
 ! R2    R(2,18)                 1.3676         estimate D2E/DX2                !
 ! R3    R(3,25)                 1.4122         estimate D2E/DX2                !
 ! R4    R(4,22)                 1.2434         estimate D2E/DX2                !
 ! R5    R(5,26)                 1.358          estimate D2E/DX2                !
 ! R6    R(5,44)                 0.986          estimate D2E/DX2                !
 ! R7    R(6,26)                 1.2379         estimate D2E/DX2                !
 ! R8    R(7,10)                 1.4626         estimate D2E/DX2                !
 ! R9    R(7,11)                 1.458          estimate D2E/DX2                !
 ! R10   R(7,14)                 1.3813         estimate D2E/DX2                !
 ! R11   R(8,12)                 1.4591         estimate D2E/DX2                !
 ! R12   R(8,13)                 1.4583         estimate D2E/DX2                !
 ! R13   R(8,17)                 1.4555         estimate D2E/DX2                !
 ! R14   R(9,15)                 1.407          estimate D2E/DX2                !
 ! R15   R(9,21)                 1.4741         estimate D2E/DX2                !
 ! R16   R(9,23)                 1.3579         estimate D2E/DX2                !
 ! R17   R(10,12)                1.5218         estimate D2E/DX2                !
 ! R18   R(10,27)                1.0947         estimate D2E/DX2                !
 ! R19   R(10,28)                1.1082         estimate D2E/DX2                !
 ! R20   R(11,13)                1.525          estimate D2E/DX2                !
 ! R21   R(11,29)                1.1062         estimate D2E/DX2                !
 ! R22   R(11,30)                1.0957         estimate D2E/DX2                !
 ! R23   R(12,31)                1.1164         estimate D2E/DX2                !
 ! R24   R(12,32)                1.1004         estimate D2E/DX2                !
 ! R25   R(13,33)                1.1006         estimate D2E/DX2                !
 ! R26   R(13,34)                1.1156         estimate D2E/DX2                !
 ! R27   R(14,16)                1.4063         estimate D2E/DX2                !
 ! R28   R(14,18)                1.4148         estimate D2E/DX2                !
 ! R29   R(15,16)                1.4023         estimate D2E/DX2                !
 ! R30   R(15,19)                1.4163         estimate D2E/DX2                !
 ! R31   R(17,35)                1.0969         estimate D2E/DX2                !
 ! R32   R(17,36)                1.0974         estimate D2E/DX2                !
 ! R33   R(17,37)                1.1134         estimate D2E/DX2                !
 ! R34   R(18,20)                1.3698         estimate D2E/DX2                !
 ! R35   R(19,20)                1.3991         estimate D2E/DX2                !
 ! R36   R(19,22)                1.4848         estimate D2E/DX2                !
 ! R37   R(20,38)                1.0908         estimate D2E/DX2                !
 ! R38   R(21,25)                1.5154         estimate D2E/DX2                !
 ! R39   R(21,39)                1.0945         estimate D2E/DX2                !
 ! R40   R(21,40)                1.0981         estimate D2E/DX2                !
 ! R41   R(22,24)                1.4575         estimate D2E/DX2                !
 ! R42   R(23,24)                1.3741         estimate D2E/DX2                !
 ! R43   R(23,41)                1.0899         estimate D2E/DX2                !
 ! R44   R(24,26)                1.4764         estimate D2E/DX2                !
 ! R45   R(25,42)                1.0984         estimate D2E/DX2                !
 ! R46   R(25,43)                1.1026         estimate D2E/DX2                !
 ! A1    A(26,5,44)            104.6516         estimate D2E/DX2                !
 ! A2    A(10,7,11)            113.3626         estimate D2E/DX2                !
 ! A3    A(10,7,14)            122.2735         estimate D2E/DX2                !
 ! A4    A(11,7,14)            122.9214         estimate D2E/DX2                !
 ! A5    A(12,8,13)            111.0602         estimate D2E/DX2                !
 ! A6    A(12,8,17)            111.8045         estimate D2E/DX2                !
 ! A7    A(13,8,17)            111.8157         estimate D2E/DX2                !
 ! A8    A(15,9,21)            124.1028         estimate D2E/DX2                !
 ! A9    A(15,9,23)            118.9154         estimate D2E/DX2                !
 ! A10   A(21,9,23)            116.9782         estimate D2E/DX2                !
 ! A11   A(7,10,12)            110.3188         estimate D2E/DX2                !
 ! A12   A(7,10,27)            110.2274         estimate D2E/DX2                !
 ! A13   A(7,10,28)            108.8008         estimate D2E/DX2                !
 ! A14   A(12,10,27)           110.6673         estimate D2E/DX2                !
 ! A15   A(12,10,28)           108.8878         estimate D2E/DX2                !
 ! A16   A(27,10,28)           107.8729         estimate D2E/DX2                !
 ! A17   A(7,11,13)            109.0532         estimate D2E/DX2                !
 ! A18   A(7,11,29)            111.2257         estimate D2E/DX2                !
 ! A19   A(7,11,30)            109.4655         estimate D2E/DX2                !
 ! A20   A(13,11,29)           109.8233         estimate D2E/DX2                !
 ! A21   A(13,11,30)           109.2145         estimate D2E/DX2                !
 ! A22   A(29,11,30)           108.0297         estimate D2E/DX2                !
 ! A23   A(8,12,10)            110.233          estimate D2E/DX2                !
 ! A24   A(8,12,31)            111.4236         estimate D2E/DX2                !
 ! A25   A(8,12,32)            108.7228         estimate D2E/DX2                !
 ! A26   A(10,12,31)           108.8972         estimate D2E/DX2                !
 ! A27   A(10,12,32)           109.9297         estimate D2E/DX2                !
 ! A28   A(31,12,32)           107.5918         estimate D2E/DX2                !
 ! A29   A(8,13,11)            111.4688         estimate D2E/DX2                !
 ! A30   A(8,13,33)            108.537          estimate D2E/DX2                !
 ! A31   A(8,13,34)            111.2562         estimate D2E/DX2                !
 ! A32   A(11,13,33)           109.0168         estimate D2E/DX2                !
 ! A33   A(11,13,34)           108.8253         estimate D2E/DX2                !
 ! A34   A(33,13,34)           107.6375         estimate D2E/DX2                !
 ! A35   A(7,14,16)            121.122          estimate D2E/DX2                !
 ! A36   A(7,14,18)            124.0985         estimate D2E/DX2                !
 ! A37   A(16,14,18)           114.7772         estimate D2E/DX2                !
 ! A38   A(9,15,16)            124.2252         estimate D2E/DX2                !
 ! A39   A(9,15,19)            118.385          estimate D2E/DX2                !
 ! A40   A(16,15,19)           117.3896         estimate D2E/DX2                !
 ! A41   A(1,16,14)            115.5302         estimate D2E/DX2                !
 ! A42   A(1,16,15)            119.9449         estimate D2E/DX2                !
 ! A43   A(14,16,15)           124.5242         estimate D2E/DX2                !
 ! A44   A(8,17,35)            109.854          estimate D2E/DX2                !
 ! A45   A(8,17,36)            109.5675         estimate D2E/DX2                !
 ! A46   A(8,17,37)            112.2908         estimate D2E/DX2                !
 ! A47   A(35,17,36)           107.4351         estimate D2E/DX2                !
 ! A48   A(35,17,37)           108.8261         estimate D2E/DX2                !
 ! A49   A(36,17,37)           108.7389         estimate D2E/DX2                !
 ! A50   A(2,18,14)            117.9697         estimate D2E/DX2                !
 ! A51   A(2,18,20)            118.9791         estimate D2E/DX2                !
 ! A52   A(14,18,20)           122.9562         estimate D2E/DX2                !
 ! A53   A(15,19,20)           119.5965         estimate D2E/DX2                !
 ! A54   A(15,19,22)           123.0158         estimate D2E/DX2                !
 ! A55   A(20,19,22)           117.3469         estimate D2E/DX2                !
 ! A56   A(18,20,19)           120.646          estimate D2E/DX2                !
 ! A57   A(18,20,38)           121.5643         estimate D2E/DX2                !
 ! A58   A(19,20,38)           117.7019         estimate D2E/DX2                !
 ! A59   A(9,21,25)            114.3577         estimate D2E/DX2                !
 ! A60   A(9,21,39)            109.895          estimate D2E/DX2                !
 ! A61   A(9,21,40)            106.699          estimate D2E/DX2                !
 ! A62   A(25,21,39)           109.5051         estimate D2E/DX2                !
 ! A63   A(25,21,40)           108.7615         estimate D2E/DX2                !
 ! A64   A(39,21,40)           107.3578         estimate D2E/DX2                !
 ! A65   A(4,22,19)            120.63           estimate D2E/DX2                !
 ! A66   A(4,22,24)            125.7553         estimate D2E/DX2                !
 ! A67   A(19,22,24)           113.6147         estimate D2E/DX2                !
 ! A68   A(9,23,24)            125.7729         estimate D2E/DX2                !
 ! A69   A(9,23,41)            115.8472         estimate D2E/DX2                !
 ! A70   A(24,23,41)           118.3797         estimate D2E/DX2                !
 ! A71   A(22,24,23)           119.6954         estimate D2E/DX2                !
 ! A72   A(22,24,26)           126.2156         estimate D2E/DX2                !
 ! A73   A(23,24,26)           114.0519         estimate D2E/DX2                !
 ! A74   A(3,25,21)            109.6824         estimate D2E/DX2                !
 ! A75   A(3,25,42)            107.3988         estimate D2E/DX2                !
 ! A76   A(3,25,43)            107.6151         estimate D2E/DX2                !
 ! A77   A(21,25,42)           112.6404         estimate D2E/DX2                !
 ! A78   A(21,25,43)           109.759          estimate D2E/DX2                !
 ! A79   A(42,25,43)           109.5967         estimate D2E/DX2                !
 ! A80   A(5,26,6)             121.5446         estimate D2E/DX2                !
 ! A81   A(5,26,24)            114.9654         estimate D2E/DX2                !
 ! A82   A(6,26,24)            123.485          estimate D2E/DX2                !
 ! D1    D(44,5,26,6)            0.1609         estimate D2E/DX2                !
 ! D2    D(44,5,26,24)         179.3675         estimate D2E/DX2                !
 ! D3    D(11,7,10,12)          55.8428         estimate D2E/DX2                !
 ! D4    D(11,7,10,27)         178.3589         estimate D2E/DX2                !
 ! D5    D(11,7,10,28)         -63.5446         estimate D2E/DX2                !
 ! D6    D(14,7,10,12)        -137.5023         estimate D2E/DX2                !
 ! D7    D(14,7,10,27)         -14.9862         estimate D2E/DX2                !
 ! D8    D(14,7,10,28)         103.1103         estimate D2E/DX2                !
 ! D9    D(10,7,11,13)         -55.1215         estimate D2E/DX2                !
 ! D10   D(10,7,11,29)          66.1452         estimate D2E/DX2                !
 ! D11   D(10,7,11,30)        -174.5512         estimate D2E/DX2                !
 ! D12   D(14,7,11,13)         138.3222         estimate D2E/DX2                !
 ! D13   D(14,7,11,29)        -100.411          estimate D2E/DX2                !
 ! D14   D(14,7,11,30)          18.8925         estimate D2E/DX2                !
 ! D15   D(10,7,14,16)          51.3791         estimate D2E/DX2                !
 ! D16   D(10,7,14,18)        -129.193          estimate D2E/DX2                !
 ! D17   D(11,7,14,16)        -143.242          estimate D2E/DX2                !
 ! D18   D(11,7,14,18)          36.1858         estimate D2E/DX2                !
 ! D19   D(13,8,12,10)          57.4572         estimate D2E/DX2                !
 ! D20   D(13,8,12,31)         -63.5677         estimate D2E/DX2                !
 ! D21   D(13,8,12,32)         178.0214         estimate D2E/DX2                !
 ! D22   D(17,8,12,10)        -176.8837         estimate D2E/DX2                !
 ! D23   D(17,8,12,31)          62.0913         estimate D2E/DX2                !
 ! D24   D(17,8,12,32)         -56.3195         estimate D2E/DX2                !
 ! D25   D(12,8,13,11)         -58.1399         estimate D2E/DX2                !
 ! D26   D(12,8,13,33)        -178.2175         estimate D2E/DX2                !
 ! D27   D(12,8,13,34)          63.5312         estimate D2E/DX2                !
 ! D28   D(17,8,13,11)         176.2073         estimate D2E/DX2                !
 ! D29   D(17,8,13,33)          56.1297         estimate D2E/DX2                !
 ! D30   D(17,8,13,34)         -62.1217         estimate D2E/DX2                !
 ! D31   D(12,8,17,35)         176.1509         estimate D2E/DX2                !
 ! D32   D(12,8,17,36)          58.348          estimate D2E/DX2                !
 ! D33   D(12,8,17,37)         -62.5957         estimate D2E/DX2                !
 ! D34   D(13,8,17,35)         -58.6067         estimate D2E/DX2                !
 ! D35   D(13,8,17,36)        -176.4096         estimate D2E/DX2                !
 ! D36   D(13,8,17,37)          62.6467         estimate D2E/DX2                !
 ! D37   D(21,9,15,16)           7.9751         estimate D2E/DX2                !
 ! D38   D(21,9,15,19)        -171.8381         estimate D2E/DX2                !
 ! D39   D(23,9,15,16)        -172.7453         estimate D2E/DX2                !
 ! D40   D(23,9,15,19)           7.4416         estimate D2E/DX2                !
 ! D41   D(15,9,21,25)         -87.4146         estimate D2E/DX2                !
 ! D42   D(15,9,21,39)          36.201          estimate D2E/DX2                !
 ! D43   D(15,9,21,40)         152.2927         estimate D2E/DX2                !
 ! D44   D(23,9,21,25)          93.2929         estimate D2E/DX2                !
 ! D45   D(23,9,21,39)        -143.0915         estimate D2E/DX2                !
 ! D46   D(23,9,21,40)         -26.9998         estimate D2E/DX2                !
 ! D47   D(15,9,23,24)          -3.5342         estimate D2E/DX2                !
 ! D48   D(15,9,23,41)         176.3262         estimate D2E/DX2                !
 ! D49   D(21,9,23,24)         175.7965         estimate D2E/DX2                !
 ! D50   D(21,9,23,41)          -4.3431         estimate D2E/DX2                !
 ! D51   D(7,10,12,8)          -55.4981         estimate D2E/DX2                !
 ! D52   D(7,10,12,31)          67.0246         estimate D2E/DX2                !
 ! D53   D(7,10,12,32)        -175.3349         estimate D2E/DX2                !
 ! D54   D(27,10,12,8)        -177.7556         estimate D2E/DX2                !
 ! D55   D(27,10,12,31)        -55.233          estimate D2E/DX2                !
 ! D56   D(27,10,12,32)         62.4075         estimate D2E/DX2                !
 ! D57   D(28,10,12,8)          63.8366         estimate D2E/DX2                !
 ! D58   D(28,10,12,31)       -173.6408         estimate D2E/DX2                !
 ! D59   D(28,10,12,32)        -56.0003         estimate D2E/DX2                !
 ! D60   D(7,11,13,8)           55.5666         estimate D2E/DX2                !
 ! D61   D(7,11,13,33)         175.3609         estimate D2E/DX2                !
 ! D62   D(7,11,13,34)         -67.5034         estimate D2E/DX2                !
 ! D63   D(29,11,13,8)         -66.5506         estimate D2E/DX2                !
 ! D64   D(29,11,13,33)         53.2438         estimate D2E/DX2                !
 ! D65   D(29,11,13,34)        170.3794         estimate D2E/DX2                !
 ! D66   D(30,11,13,8)         175.1519         estimate D2E/DX2                !
 ! D67   D(30,11,13,33)        -65.0537         estimate D2E/DX2                !
 ! D68   D(30,11,13,34)         52.0819         estimate D2E/DX2                !
 ! D69   D(7,14,16,1)            3.1744         estimate D2E/DX2                !
 ! D70   D(7,14,16,15)        -177.1234         estimate D2E/DX2                !
 ! D71   D(18,14,16,1)        -176.3038         estimate D2E/DX2                !
 ! D72   D(18,14,16,15)          3.3984         estimate D2E/DX2                !
 ! D73   D(7,14,18,2)            1.4532         estimate D2E/DX2                !
 ! D74   D(7,14,18,20)         177.8692         estimate D2E/DX2                !
 ! D75   D(16,14,18,2)        -179.0862         estimate D2E/DX2                !
 ! D76   D(16,14,18,20)         -2.6702         estimate D2E/DX2                !
 ! D77   D(9,15,16,1)           -1.4056         estimate D2E/DX2                !
 ! D78   D(9,15,16,14)         178.9046         estimate D2E/DX2                !
 ! D79   D(19,15,16,1)         178.4093         estimate D2E/DX2                !
 ! D80   D(19,15,16,14)         -1.2805         estimate D2E/DX2                !
 ! D81   D(9,15,19,20)         178.0825         estimate D2E/DX2                !
 ! D82   D(9,15,19,22)          -4.3054         estimate D2E/DX2                !
 ! D83   D(16,15,19,20)         -1.7435         estimate D2E/DX2                !
 ! D84   D(16,15,19,22)        175.8686         estimate D2E/DX2                !
 ! D85   D(2,18,20,19)         176.2596         estimate D2E/DX2                !
 ! D86   D(2,18,20,38)          -0.2549         estimate D2E/DX2                !
 ! D87   D(14,18,20,19)         -0.1219         estimate D2E/DX2                !
 ! D88   D(14,18,20,38)       -176.6364         estimate D2E/DX2                !
 ! D89   D(15,19,20,18)          2.4377         estimate D2E/DX2                !
 ! D90   D(15,19,20,38)        179.0836         estimate D2E/DX2                !
 ! D91   D(22,19,20,18)       -175.3081         estimate D2E/DX2                !
 ! D92   D(22,19,20,38)          1.3378         estimate D2E/DX2                !
 ! D93   D(15,19,22,4)         177.3202         estimate D2E/DX2                !
 ! D94   D(15,19,22,24)         -2.6582         estimate D2E/DX2                !
 ! D95   D(20,19,22,4)          -5.0174         estimate D2E/DX2                !
 ! D96   D(20,19,22,24)        175.0043         estimate D2E/DX2                !
 ! D97   D(9,21,25,3)          -66.0857         estimate D2E/DX2                !
 ! D98   D(9,21,25,42)          53.4712         estimate D2E/DX2                !
 ! D99   D(9,21,25,43)         175.8801         estimate D2E/DX2                !
 ! D100  D(39,21,25,3)         170.0895         estimate D2E/DX2                !
 ! D101  D(39,21,25,42)        -70.3536         estimate D2E/DX2                !
 ! D102  D(39,21,25,43)         52.0553         estimate D2E/DX2                !
 ! D103  D(40,21,25,3)          53.0515         estimate D2E/DX2                !
 ! D104  D(40,21,25,42)        172.6084         estimate D2E/DX2                !
 ! D105  D(40,21,25,43)        -64.9827         estimate D2E/DX2                !
 ! D106  D(4,22,24,23)        -173.3438         estimate D2E/DX2                !
 ! D107  D(4,22,24,26)           4.3006         estimate D2E/DX2                !
 ! D108  D(19,22,24,23)          6.6332         estimate D2E/DX2                !
 ! D109  D(19,22,24,26)       -175.7224         estimate D2E/DX2                !
 ! D110  D(9,23,24,22)          -3.9465         estimate D2E/DX2                !
 ! D111  D(9,23,24,26)         178.1345         estimate D2E/DX2                !
 ! D112  D(41,23,24,22)        176.1963         estimate D2E/DX2                !
 ! D113  D(41,23,24,26)         -1.7226         estimate D2E/DX2                !
 ! D114  D(22,24,26,5)           6.453          estimate D2E/DX2                !
 ! D115  D(22,24,26,6)        -174.3578         estimate D2E/DX2                !
 ! D116  D(23,24,26,5)        -175.7878         estimate D2E/DX2                !
 ! D117  D(23,24,26,6)           3.4015         estimate D2E/DX2                !
 --------------------------------------------------------------------------------
 Trust Radius=3.00D-01 FncErr=1.00D-07 GrdErr=1.00D-06
 Number of steps in this run=    255 maximum allowed number of steps=    264.
 GradGradGradGradGradGradGradGradGradGradGradGradGradGradGradGradGradGrad

                          Input orientation:                          
 ---------------------------------------------------------------------
 Center     Atomic      Atomic             Coordinates (Angstroms)
 Number     Number       Type             X           Y           Z
 ---------------------------------------------------------------------
      1          9           0       -8.066000    9.829000    7.628000
      2          9           0       -8.925000    5.225000    6.908000
      3          9           0       -4.741000   11.812000    5.895000
      4          8           0       -3.981000    5.455000    6.875000
      5          8           0       -1.469000    6.551000    6.416000
      6          8           0       -1.235000    8.752000    6.902000
      7          7           0       -9.899000    7.863000    7.239000
      8          7           0      -12.506000    8.870000    7.729000
      9          7           0       -5.227000    9.349000    7.500000
     10          6           0      -10.462000    8.910000    6.387000
     11          6           0      -10.909000    6.994000    7.831000
     12          6           0      -11.476000    9.736000    7.165000
     13          6           0      -11.919000    7.849000    8.589000
     14          6           0       -8.552000    7.557000    7.239000
     15          6           0       -6.195000    8.338000    7.357000
     16          6           0       -7.579000    8.559000    7.403000
     17          6           0      -13.535000    9.633000    8.420000
     18          6           0       -8.036000    6.248000    7.091000
     19          6           0       -5.754000    7.007000    7.157000
     20          6           0       -6.694000    5.976000    7.052000
     21          6           0       -5.534000   10.739000    7.883000
     22          6           0       -4.323000    6.644000    6.999000
     23          6           0       -3.921000    9.042000    7.290000
     24          6           0       -3.425000    7.792000    7.008000
     25          6           0       -5.876000   11.647000    6.719000
     26          6           0       -1.966000    7.760000    6.784000
     27          1           0       -9.664000    9.548000    5.994000
     28          1           0      -10.972000    8.434000    5.526000
     29          1           0      -11.428000    6.398000    7.057000
     30          1           0      -10.429000    6.299000    8.529000
     31          1           0      -10.942000   10.307000    7.962000
     32          1           0      -11.956000   10.467000    6.497000
     33          1           0      -12.726000    7.202000    8.965000
     34          1           0      -11.413000    8.306000    9.472000
     35          1           0      -14.326000    8.959000    8.771000
     36          1           0      -13.995000   10.345000    7.723000
     37          1           0      -13.130000   10.196000    9.291000
     38          1           0       -6.321000    4.965000    6.883000
     39          1           0       -6.352000   10.753000    8.610000
     40          1           0       -4.641000   11.132000    8.387000
     41          1           0       -3.221000    9.875000    7.353000
     42          1           0       -6.682000   11.244000    6.091000
     43          1           0       -6.163000   12.643000    7.095000
     44          1           0       -0.502000    6.704000    6.299000
 ---------------------------------------------------------------------
                    Distance matrix (angstroms):
                    1          2          3          4          5
     1  F    0.000000
     2  F    4.738470   0.000000
     3  F    4.241604   7.868964   0.000000
     4  O    6.032090   4.949457   6.476839   0.000000
     5  O    7.465563   7.588958   6.217358   2.778856   0.000000
     6  O    6.953385   8.460252   4.761269   4.290857   2.266132
     7  N    2.715947   2.831480   6.633694   6.399507   8.571089
     8  N    4.543510   5.175290   8.503772   9.223186  11.354167
     9  N    2.882135   5.570731   2.979696   4.135986   4.808994
    10  C    2.850519   4.026541   6.433779   7.360607   9.297299
    11  C    4.020085   2.813813   8.062595   7.160980   9.555735
    12  C    3.442545   5.188716   7.161208   8.636324  10.528308
    13  C    4.437289   4.321478   8.630567   8.466456  10.752173
    14  C    2.355738   2.384725   5.868141   5.044298   7.201268
    15  C    2.407730   4.164765   4.039831   3.666853   5.139448
    16  C    1.378657   3.629366   4.572780   4.781130   6.506791
    17  C    5.529524   6.555052   9.405217  10.541424  12.613608
    18  C    3.621164   1.367603   6.576134   4.137455   6.608549
    19  C    3.678433   3.645925   5.070191   2.373132   4.372441
    20  C    4.130347   2.358410   6.261929   2.768238   5.294879
    21  C    2.702619   6.546274   2.394227   5.598976   6.017945
    22  C    4.954787   4.816663   5.301110   1.243407   2.914422
    23  C    4.232569   6.305191   3.208010   3.611425   3.602952
    24  C    5.106138   6.070378   4.373903   2.405908   2.390916
    25  C    2.987893   7.111554   1.412241   6.477363   6.744084
    26  C    6.496391   7.407380   4.990957   3.062929   1.357982
    27  H    2.302720   4.479938   5.419541   7.058704   8.736024
    28  H    3.848281   4.049421   7.097352   7.718052   9.728556
    29  H    4.837442   2.768238   8.682028   7.508674   9.980780
    30  H    4.342404   2.458278   8.347722   6.710049   9.209228
    31  H    2.934521   5.568297   6.707452   8.554472  10.307055
    32  H    4.101013   6.069139   7.363943   9.426752  11.194587
    33  H    5.514009   4.752618   9.717882   9.159429  11.560331
    34  H    4.113669   4.717711   8.342814   8.373006  10.549990
    35  H    6.422690   6.825271  10.405922  11.085660  13.290859
    36  H    5.952170   7.251450   9.546213  11.176377  13.153074
    37  H    5.342692   6.933365   9.193454  10.583872  12.551118
    38  H    5.220972   2.617067   7.096052   2.390766   5.125952
    39  H    2.180802   6.330554   3.329869   6.058108   6.805448
    40  H    3.742261   7.445317   2.585046   5.911859   5.910329
    41  H    4.853016   7.372662   2.861491   4.510264   3.872525
    42  H    2.506003   6.475098   2.031876   6.436037   7.021769
    43  H    3.438618   7.917723   2.037804   7.515109   7.720566
    44  H    8.291318   8.573520   6.650113   3.741018   0.985995
                    6          7          8          9         10
     6  O    0.000000
     7  N    8.716007   0.000000
     8  N   11.301916   2.837358   0.000000
     9  N    4.080451   4.909572   7.298337   0.000000
    10  C    9.242712   1.462560   2.445506   5.369983   0.000000
    11  C    9.876228   1.457987   2.465804   6.159603   2.440492
    12  C   10.291526   2.449599   1.459093   6.269928   1.521761
    13  C   10.853996   2.429629   1.458290   6.943975   2.845589
    14  C    7.421596   1.381320   4.195019   3.786160   2.490906
    15  C    4.998002   3.736197   6.344299   1.406980   4.413091
    16  C    6.366678   2.427697   4.947558   2.483025   3.076873
    17  C   12.424592   4.212856   1.455504   8.363607   3.754883
    18  C    7.249782   2.470000   5.221382   4.204041   3.669787
    19  C    4.850919   4.233259   7.027621   2.424942   5.136105
    20  C    6.126121   3.723945   6.527856   3.705391   4.821660
    21  C    4.836521   5.266815   7.219810   1.474123   5.465203
    22  C    3.740163   5.712735   8.511725   2.895728   6.572414
    23  C    2.729330   6.093367   8.597938   1.357934   6.604356
    24  C    2.393520   6.478509   9.173139   2.431772   7.152268
    25  C    5.472969   5.547394   7.258700   2.512363   5.350962
    26  C    1.237881   7.946705  10.640335   3.697526   8.582664
    27  H    8.515053   2.108192   3.398069   4.689841   1.094668
    28  H    9.838886   2.100414   2.719644   6.143202   1.108150
    29  H   10.462437   2.125368   2.779290   6.881646   2.773482
    30  H    9.653703   2.095494   3.400584   6.117364   3.377362
    31  H    9.887744   2.753854   2.136669   5.813126   2.159313
    32  H   10.864856   3.400387   2.090630   6.894590   2.160645
    33  H   11.777162   3.377562   2.087659   7.936677   3.832629
    34  H   10.506926   2.733996   2.133259   6.575958   3.284272
    35  H   13.225365   4.811088   2.099068   9.195615   4.540523
    36  H   12.885235   4.813709   2.095896   8.827206   4.040571
    37  H   12.218162   4.482516   2.141844   8.147546   4.147919
    38  H    6.341067   4.618141   7.363353   4.560371   5.740812
    39  H    5.753690   4.776290   6.495657   2.113987   5.022995
    40  H    4.412535   6.296890   8.210227   2.075874   6.543801
    41  H    2.325667   6.975444   9.346798   2.079019   7.368613
    42  H    6.044633   4.806054   6.499069   2.773685   4.452367
    43  H    6.281904   6.068512   7.407505   3.448269   5.737417
    44  H    2.257255   9.514751  12.281387   5.546535  10.201754
                   11         12         13         14         15
    11  C    0.000000
    12  C    2.878126   0.000000
    13  C    1.525021   2.405160   0.000000
    14  C    2.494571   3.647368   3.639293   0.000000
    15  C    4.924714   5.466281   5.875468   2.485827   0.000000
    16  C    3.704229   4.077816   4.554810   1.406282   1.402288
    17  C    3.769233   2.413528   2.413022   5.525833   7.528784
    18  C    3.059125   4.899512   4.459248   1.414794   2.797881
    19  C    5.198891   6.339463   6.384889   2.852723   1.416348
    20  C    4.405609   6.084233   5.759438   2.446772   2.433325
    21  C    6.551210   6.068682   7.044059   4.432627   2.545270
    22  C    6.647565   7.794449   7.853620   4.333083   2.549938
    23  C    7.301995   7.587838   8.190156   4.863536   2.381424
    24  C    7.571287   8.283863   8.640072   5.137579   2.844788
    25  C    6.943921   5.933872   7.378316   4.915229   3.385009
    26  C    9.036604   9.720588  10.115738   6.604819   4.306606
    27  H    3.383417   2.165624   3.834795   2.598201   3.918652
    28  H    2.718565   2.153031   3.258988   3.091908   5.116787
    29  H    1.106189   3.340092   2.166450   3.106088   5.589087
    30  H    1.095732   3.843133   2.150860   2.601883   4.843332
    31  H    3.315753   1.116426   2.718349   3.714476   5.174649
    32  H    3.864905   1.100448   3.351381   4.539370   6.201723
    33  H    2.151908   3.350173   1.100561   4.530715   6.821299
    34  H    2.160611   2.714980   1.115605   3.705754   5.630433
    35  H    4.052248   3.362360   2.656854   6.136098   8.276364
    36  H    4.556782   2.650963   3.360022   6.134611   8.062382
    37  H    4.161399   2.732616   2.732715   5.668607   7.435506
    38  H    5.105418   7.029651   6.524224   3.438395   3.408472
    39  H    5.958454   5.420119   6.278945   4.115101   2.725231
    40  H    7.531268   7.082325   7.986750   5.421665   3.358906
    41  H    8.223989   8.258310   9.015962   5.814265   3.347695
    42  H    6.241605   5.139064   6.722514   4.290545   3.206986
    43  H    7.414676   6.056692   7.638456   5.620983   4.313084
    44  H   10.523154  11.418041  11.700556   8.149461   6.016608
                   16         17         18         19         20
    16  C    0.000000
    17  C    6.136913   0.000000
    18  C    2.376324   6.592683   0.000000
    19  C    2.408287   8.308731   2.405818   0.000000
    20  C    2.752874   7.876824   1.369843   1.399138   0.000000
    21  C    3.027346   8.094912   5.201572   3.808320   4.972155
    22  C    3.798944   9.788478   3.735191   1.484754   2.463874
    23  C    3.691480   9.698205   4.977877   2.742044   4.140837
    24  C    4.242644  10.372807   4.863347   2.462248   3.739807
    25  C    3.592187   8.099992   5.826936   4.662224   5.739360
    26  C    5.703274  11.833275   6.263010   3.880088   5.060481
    27  H    2.703817   4.569173   3.839765   4.805970   4.764394
    28  H    3.879588   4.047444   3.980944   5.650134   5.164467
    29  H    4.427690   4.094196   3.395485   5.707465   4.752774
    30  H    3.807621   4.557924   2.792292   4.923340   4.029402
    31  H    3.831156   2.718030   5.067441   6.201078   6.134425
    32  H    4.859982   2.624257   5.789577   7.132461   6.940155
    33  H    5.547333   2.619402   5.139853   7.205253   6.445748
    34  H    4.363981   2.714870   4.616130   6.250673   5.792604
    35  H    6.895900   1.096886   7.052377   8.938371   8.372615
    36  H    6.667627   1.097430   7.259099   8.909359   8.534811
    37  H    6.087521   1.113389   6.809959   8.314388   8.015212
    38  H    3.843150   8.728940   2.151878   2.136897   1.090785
    39  H    2.788551   7.272275   5.043634   4.062183   5.036274
    40  H    4.027459   9.019497   6.087618   4.446043   5.708009
    41  H    4.552639  10.371868   6.033904   3.831440   5.230156
    42  H    3.120125   7.415064   5.271938   4.466510   5.354950
    43  H    4.333472   8.072305   6.663645   5.651161   6.688251
    44  H    7.398903  13.525412   7.589226   5.330242   6.279957
                   21         22         23         24         25
    21  C    0.000000
    22  C    4.360849   0.000000
    23  C    2.415207   2.448814   0.000000
    24  C    3.728044   1.457528   1.374060   0.000000
    25  C    1.515363   5.245972   3.306674   4.577330   0.000000
    26  C    4.776282   2.616702   2.391983   1.476442   5.513719
    27  H    4.695072   6.161941   5.909120   6.560248   4.390942
    28  H    6.359270   7.041522   7.293693   7.717882   6.141322
    29  H    7.366532   7.109494   7.962416   8.123647   7.647938
    30  H    6.640176   6.304218   7.170302   7.321100   7.253069
    31  H    5.425802   7.626015   7.165630   7.983773   5.385629
    32  H    6.575490   8.551609   8.198823   8.955150   6.197426
    33  H    8.087395   8.647944   9.149822   9.522949   8.469064
    34  H    6.557976   7.690648   7.837913   8.375180   7.028489
    35  H    9.014223  10.419175  10.510199  11.104137   9.101568
    36  H    8.471680  10.381193  10.167142  10.897428   8.283802
    37  H    7.744451   9.768993   9.494282  10.255649   7.832056
    38  H    5.912567   2.612375   4.748429   4.048996   6.698809
    39  H    1.094463   4.857576   3.252642   4.461082   2.145156
    40  H    1.098141   4.708483   2.467774   3.812597   2.138381
    41  H    2.525345   3.432067   1.089889   2.121210   3.254376
    42  H    2.187280   5.248747   3.729548   4.833761   1.098376
    43  H    2.154484   6.275573   4.246386   5.571033   1.102616
    44  H    6.641634   3.885054   4.258860   3.198492   7.313653
                   26         27         28         29         30
    26  C    0.000000
    27  H    7.942307   0.000000
    28  H    9.118381   1.780698   0.000000
    29  H    9.563421   3.763531   2.587894   0.000000
    30  H    8.763670   4.191354   3.724390   1.781737   0.000000
    31  H    9.404439   2.466250   3.072967   4.041720   4.080285
    32  H   10.354242   2.520086   2.458493   4.141153   4.881903
    33  H   10.992985   4.868922   4.052291   2.443703   2.506335
    34  H    9.837137   4.086325   3.972629   3.077810   2.426016
    35  H   12.575984   5.458287   4.696271   4.230239   4.724487
    36  H   12.339400   4.730984   4.197292   4.755192   5.453082
    37  H   11.698463   4.827346   4.683677   4.723597   4.802359
    38  H    5.175698   5.741939   5.958793   5.307091   4.622179
    39  H    5.615098   4.389171   6.019403   6.866120   6.038759
    40  H    4.592997   5.784983   7.452925   8.381111   7.541817
    41  H    2.524284   6.592879   8.092738   8.918071   8.131790
    42  H    5.904165   3.431931   5.159402   6.851379   6.666099
    43  H    6.446334   4.800857   6.580572   8.168335   7.778268
    44  H    1.869133   9.598104  10.640081  10.956536  10.182448
                   31         32         33         34         35
    31  H    0.000000
    32  H    1.788860   0.000000
    33  H    3.718829   4.164631   0.000000
    34  H    2.550675   3.716907   1.788808   0.000000
    35  H    3.731359   3.614144   2.384258   3.066493   0.000000
    36  H    3.062576   2.382327   3.609899   3.726023   1.768859
    37  H    2.562402   3.042721   3.038672   2.559873   1.797494
    38  H    7.145267   7.885063   7.096684   6.617678   9.143118
    39  H    4.656922   5.995947   7.305033   5.687229   8.174903
    40  H    6.368976   7.584428   9.008119   7.417782   9.933207
    41  H    7.757019   8.796785  10.004424   8.605858  11.232578
    42  H    4.746178   5.346367   7.818413   6.515011   8.416315
    43  H    5.389566   6.217027   8.727792   7.212642   9.111279
    44  H   11.168741  12.057922  12.521251  11.475376  14.223178
                   36         37         38         39         40
    36  H    0.000000
    37  H    1.796956   0.000000
    38  H    9.409584   8.917640   0.000000
    39  H    7.705108   6.834859   6.040235   0.000000
    40  H    9.410504   8.588157   6.566301   1.766604   0.000000
    41  H   10.790592  10.101840   5.825719   3.486272   2.160001
    42  H    7.546628   7.274270   6.339040   2.587536   3.074059
    43  H    8.186294   7.703851   7.682551   2.429618   2.503771
    44  H   14.047979  13.439215   6.101306   7.480483   6.410792
                   41         42         43         44
    41  H    0.000000
    42  H    3.930054   0.000000
    43  H    4.047685   1.798493   0.000000
    44  H    4.308029   7.671197   8.243316   0.000000
 Stoichiometry    C17H18F3N3O3
 Framework group  C1[X(C17H18F3N3O3)]
 Deg. of freedom   126
 Full point group                 C1      NOp   1
 Largest Abelian subgroup         C1      NOp   1
 Largest concise Abelian subgroup C1      NOp   1
                         Standard orientation:                         
 ---------------------------------------------------------------------
 Center     Atomic      Atomic             Coordinates (Angstroms)
 Number     Number       Type             X           Y           Z
 ---------------------------------------------------------------------
      1          9           0        1.074442    1.457398   -0.317577
      2          9           0        1.616157   -3.175945    0.514155
      3          9           0       -2.307195    3.624413    1.046159
      4          8           0       -3.285903   -2.696465    0.027294
      5          8           0       -5.772532   -1.470185    0.214260
      6          8           0       -5.841242    0.734382   -0.305848
      7          7           0        2.753479   -0.594212    0.272420
      8          7           0        5.445617    0.274574    0.052873
      9          7           0       -1.783272    1.122663   -0.485291
     10          6           0        3.277405    0.432286    1.172911
     11          6           0        3.773849   -1.519469   -0.205565
     12          6           0        4.408153    1.197538    0.500933
     13          6           0        4.900024   -0.724835   -0.858235
     14          6           0        1.399927   -0.831848    0.132886
     15          6           0       -0.888662    0.065735   -0.235952
     16          6           0        0.502081    0.216115   -0.137811
     17          6           0        6.578945    0.977103   -0.530662
     18          6           0        0.804803   -2.111455    0.233254
     19          6           0       -1.415854   -1.239059   -0.075885
     20          6           0       -0.546111   -2.314963    0.132839
     21          6           0       -1.367031    2.491142   -0.841726
     22          6           0       -2.872262   -1.527657   -0.066783
     23          6           0       -3.118086    0.884252   -0.411681
     24          6           0       -3.704311   -0.335981   -0.176286
     25          6           0       -1.102320    3.393380    0.346642
     26          6           0       -5.178436   -0.291887   -0.106327
     27          1           0        2.476523    1.113984    1.476512
     28          1           0        3.669598   -0.059413    2.085278
     29          1           0        4.177909   -2.132412    0.621895
     30          1           0        3.334340   -2.196943   -0.946166
     31          1           0        3.990315    1.786020   -0.350834
     32          1           0        4.852643    1.910637    1.211498
     33          1           0        5.707608   -1.415790   -1.143936
     34          1           0        4.513127   -0.252553   -1.791955
     35          1           0        7.366641    0.260265   -0.793028
     36          1           0        6.999567    1.672553    0.206752
     37          1           0        6.296548    1.550280   -1.442449
     38          1           0       -0.986107   -3.303953    0.267426
     39          1           0       -0.477946    2.455922   -1.479015
     40          1           0       -2.181164    2.923171   -1.438763
     41          1           0       -3.764005    1.750769   -0.552370
     42          1           0       -0.388059    2.957107    1.057927
     43          1           0       -0.726892    4.369470   -0.002734
     44          1           0       -6.737330   -1.267327    0.228367
 ---------------------------------------------------------------------
 Rotational constants (GHZ):      0.3846239      0.1100155      0.0886606
 Standard basis: 3-21G (6D, 7F)
 There are   270 symmetry adapted cartesian basis functions of A   symmetry.
 There are   270 symmetry adapted basis functions of A   symmetry.
   270 basis functions,   444 primitive gaussians,   270 cartesian basis functions
    96 alpha electrons       96 beta electrons
       nuclear repulsion energy      2431.9814689677 Hartrees.
 NAtoms=   44 NActive=   44 NUniq=   44 SFac= 1.00D+00 NAtFMM=   60 NAOKFM=F Big=F
 Integral buffers will be    131072 words long.
 Raffenetti 2 integral format.
 Two-electron integral symmetry is turned on.
 One-electron integrals computed using PRISM.
 PrsmSu:  requested number of processors reduced to:   9 ShMem   1 Linda.
 NBasis=   270 RedAO= T EigKep=  1.26D-03  NBF=   270
 NBsUse=   270 1.00D-06 EigRej= -1.00D+00 NBFU=   270
 ExpMin= 1.83D-01 ExpMax= 4.14D+02 ExpMxC= 4.14D+02 IAcc=1 IRadAn=         1 AccDes= 0.00D+00
 Harris functional with IExCor=  402 and IRadAn=       1 diagonalized for initial guess.
 HarFok:  IExCor=  402 AccDes= 0.00D+00 IRadAn=         1 IDoV= 1 UseB2=F ITyADJ=14
 ICtDFT=  3500011 ScaDFX=  1.000000  1.000000  1.000000  1.000000
 FoFCou: FMM=F IPFlag=           0 FMFlag=      100000 FMFlg1=           0
         NFxFlg=           0 DoJE=T BraDBF=F KetDBF=T FulRan=T
         wScrn=  0.000000 ICntrl=     500 IOpCl=  0 I1Cent=   200000004 NGrid=           0
         NMat0=    1 NMatS0=      1 NMatT0=    0 NMatD0=    1 NMtDS0=    0 NMtDT0=    0
 Petite list used in FoFCou.
 Requested convergence on RMS density matrix=1.00D-08 within 128 cycles.
 Requested convergence on MAX density matrix=1.00D-06.
 Requested convergence on             energy=1.00D-06.
 No special actions if energy rises.
 Integral accuracy reduced to 1.0D-05 until final iterations.
 EnCoef did     1 forward-backward iterations
 Initial convergence to 1.0D-05 achieved.  Increase integral accuracy.
 SCF Done:  E(RB3LYP) =  -1340.70471692     A.U. after   17 cycles
            NFock= 17  Conv=0.93D-08     -V/T= 2.0081

 **********************************************************************

            Population analysis using the SCF density.

 **********************************************************************

 Orbital symmetries:
       Occupied  (A) (A) (A) (A) (A) (A) (A) (A) (A) (A) (A) (A)
                 (A) (A) (A) (A) (A) (A) (A) (A) (A) (A) (A) (A)
                 (A) (A) (A) (A) (A) (A) (A) (A) (A) (A) (A) (A)
                 (A) (A) (A) (A) (A) (A) (A) (A) (A) (A) (A) (A)
                 (A) (A) (A) (A) (A) (A) (A) (A) (A) (A) (A) (A)
                 (A) (A) (A) (A) (A) (A) (A) (A) (A) (A) (A) (A)
                 (A) (A) (A) (A) (A) (A) (A) (A) (A) (A) (A) (A)
                 (A) (A) (A) (A) (A) (A) (A) (A) (A) (A) (A) (A)
       Virtual   (A) (A) (A) (A) (A) (A) (A) (A) (A) (A) (A) (A)
                 (A) (A) (A) (A) (A) (A) (A) (A) (A) (A) (A) (A)
                 (A) (A) (A) (A) (A) (A) (A) (A) (A) (A) (A) (A)
                 (A) (A) (A) (A) (A) (A) (A) (A) (A) (A) (A) (A)
                 (A) (A) (A) (A) (A) (A) (A) (A) (A) (A) (A) (A)
                 (A) (A) (A) (A) (A) (A) (A) (A) (A) (A) (A) (A)
                 (A) (A) (A) (A) (A) (A) (A) (A) (A) (A) (A) (A)
                 (A) (A) (A) (A) (A) (A) (A) (A) (A) (A) (A) (A)
                 (A) (A) (A) (A) (A) (A) (A) (A) (A) (A) (A) (A)
                 (A) (A) (A) (A) (A) (A) (A) (A) (A) (A) (A) (A)
                 (A) (A) (A) (A) (A) (A) (A) (A) (A) (A) (A) (A)
                 (A) (A) (A) (A) (A) (A) (A) (A) (A) (A) (A) (A)
                 (A) (A) (A) (A) (A) (A) (A) (A) (A) (A) (A) (A)
                 (A) (A) (A) (A) (A) (A) (A) (A) (A) (A) (A) (A)
                 (A) (A) (A) (A) (A) (A)
 The electronic state is 1-A.
 Alpha  occ. eigenvalues --  -24.60778 -24.58183 -24.53849 -19.07186 -19.01473
 Alpha  occ. eigenvalues --  -19.00167 -14.35090 -14.28605 -14.25211 -10.25281
 Alpha  occ. eigenvalues --  -10.23823 -10.22614 -10.21934 -10.21352 -10.20498
 Alpha  occ. eigenvalues --  -10.20329 -10.20091 -10.19930 -10.16837 -10.16556
 Alpha  occ. eigenvalues --  -10.15666 -10.15623 -10.15561 -10.14838 -10.14596
 Alpha  occ. eigenvalues --  -10.14326  -1.24154  -1.21997  -1.17650  -1.10020
 Alpha  occ. eigenvalues --   -1.02580  -1.01660  -1.00526  -0.97889  -0.93578
 Alpha  occ. eigenvalues --   -0.88692  -0.83336  -0.80135  -0.79014  -0.78505
 Alpha  occ. eigenvalues --   -0.76628  -0.73587  -0.69084  -0.68052  -0.67251
 Alpha  occ. eigenvalues --   -0.66363  -0.64536  -0.62188  -0.61717  -0.59115
 Alpha  occ. eigenvalues --   -0.56937  -0.56334  -0.55408  -0.53229  -0.52797
 Alpha  occ. eigenvalues --   -0.51288  -0.50980  -0.50168  -0.49233  -0.48486
 Alpha  occ. eigenvalues --   -0.48177  -0.47871  -0.47437  -0.46941  -0.46459
 Alpha  occ. eigenvalues --   -0.45667  -0.45497  -0.45308  -0.44586  -0.44374
 Alpha  occ. eigenvalues --   -0.43604  -0.42508  -0.42191  -0.41624  -0.41551
 Alpha  occ. eigenvalues --   -0.39759  -0.39157  -0.38497  -0.38018  -0.37699
 Alpha  occ. eigenvalues --   -0.37382  -0.36637  -0.36402  -0.35795  -0.35573
 Alpha  occ. eigenvalues --   -0.34694  -0.33693  -0.33454  -0.29779  -0.28846
 Alpha  occ. eigenvalues --   -0.26892  -0.26093  -0.22969  -0.22344  -0.21658
 Alpha  occ. eigenvalues --   -0.20771
 Alpha virt. eigenvalues --   -0.04781  -0.04102   0.00373   0.03605   0.05550
 Alpha virt. eigenvalues --    0.08884   0.09526   0.10232   0.11114   0.11497
 Alpha virt. eigenvalues --    0.11954   0.12137   0.13276   0.13875   0.14135
 Alpha virt. eigenvalues --    0.15286   0.15495   0.15817   0.16563   0.17119
 Alpha virt. eigenvalues --    0.17546   0.17895   0.18091   0.18524   0.19010
 Alpha virt. eigenvalues --    0.19155   0.19579   0.20859   0.21419   0.22616
 Alpha virt. eigenvalues --    0.23256   0.23833   0.24836   0.25664   0.26404
 Alpha virt. eigenvalues --    0.26441   0.27680   0.28187   0.28756   0.29948
 Alpha virt. eigenvalues --    0.30778   0.31864   0.35269   0.37253   0.40125
 Alpha virt. eigenvalues --    0.41086   0.44327   0.44952   0.49618   0.54777
 Alpha virt. eigenvalues --    0.56420   0.60431   0.63020   0.64379   0.64653
 Alpha virt. eigenvalues --    0.65918   0.66127   0.67081   0.68149   0.68766
 Alpha virt. eigenvalues --    0.69325   0.70220   0.70314   0.71035   0.71841
 Alpha virt. eigenvalues --    0.72230   0.72603   0.72914   0.73494   0.73989
 Alpha virt. eigenvalues --    0.74932   0.75318   0.75811   0.77072   0.77559
 Alpha virt. eigenvalues --    0.78128   0.79085   0.79954   0.81193   0.82632
 Alpha virt. eigenvalues --    0.83448   0.84236   0.84881   0.86093   0.86967
 Alpha virt. eigenvalues --    0.88134   0.90009   0.92996   0.94204   0.95410
 Alpha virt. eigenvalues --    0.96180   0.97073   0.97330   0.98077   0.98399
 Alpha virt. eigenvalues --    0.99695   1.01022   1.01210   1.02322   1.03460
 Alpha virt. eigenvalues --    1.05505   1.05856   1.06660   1.07272   1.07583
 Alpha virt. eigenvalues --    1.09096   1.11270   1.11983   1.13352   1.13610
 Alpha virt. eigenvalues --    1.15788   1.17529   1.18218   1.20673   1.23740
 Alpha virt. eigenvalues --    1.26734   1.30500   1.32016   1.33505   1.35381
 Alpha virt. eigenvalues --    1.36564   1.39569   1.40682   1.44030   1.44660
 Alpha virt. eigenvalues --    1.45511   1.47080   1.49531   1.52402   1.57151
 Alpha virt. eigenvalues --    1.58356   1.58908   1.60333   1.61053   1.61831
 Alpha virt. eigenvalues --    1.62299   1.64769   1.65527   1.67140   1.71332
 Alpha virt. eigenvalues --    1.73011   1.77487   1.79639   1.84267   1.87210
 Alpha virt. eigenvalues --    1.87472   1.89882   1.90289   1.92283   1.94226
 Alpha virt. eigenvalues --    1.95064   1.95875   1.98340   1.99028   2.00986
 Alpha virt. eigenvalues --    2.02663   2.04015   2.05507   2.07081   2.10144
 Alpha virt. eigenvalues --    2.14221   2.21104   2.24578   2.38877   2.52388
 Alpha virt. eigenvalues --    2.77764   2.82062   2.97365   3.15772   3.43707
 Alpha virt. eigenvalues --    3.55932   3.59196   3.92096   4.10530
          Condensed to atoms (all electrons):
               1          2          3          4          5          6
     1  F    9.098400   0.000000   0.000000   0.000000   0.000000   0.000000
     2  F    0.000000   9.089025   0.000000   0.000000   0.000000   0.000000
     3  F    0.000000   0.000000   9.135386   0.000000   0.000000   0.000000
     4  O    0.000000   0.000000   0.000000   8.071041  -0.000707  -0.000001
     5  O    0.000000   0.000000   0.000000  -0.000707   8.233178  -0.064652
     6  O    0.000000   0.000000   0.000000  -0.000001  -0.064652   8.144405
     7  N   -0.003479  -0.003448   0.000000   0.000000   0.000000   0.000000
     8  N    0.000000   0.000000   0.000000   0.000000   0.000000   0.000000
     9  N   -0.003174   0.000000  -0.001020  -0.000021  -0.000001   0.000100
    10  C    0.001254  -0.000055   0.000000   0.000000   0.000000   0.000000
    11  C   -0.000022   0.007786   0.000000   0.000000   0.000000   0.000000
    12  C   -0.001300   0.000000   0.000000   0.000000   0.000000   0.000000
    13  C   -0.000002   0.000129   0.000000   0.000000   0.000000   0.000000
    14  C   -0.059816  -0.062045   0.000000  -0.000005   0.000000   0.000000
    15  C   -0.065191  -0.000189  -0.000068   0.003311  -0.000002   0.000002
    16  C    0.287155   0.002303   0.000007   0.000003   0.000000   0.000000
    17  C    0.000000   0.000000   0.000000   0.000000   0.000000   0.000000
    18  C    0.002209   0.313890   0.000000   0.000712   0.000000   0.000000
    19  C    0.002510   0.002990   0.000000  -0.126348   0.000091  -0.000016
    20  C   -0.000218  -0.061741   0.000000   0.003923   0.000000   0.000000
    21  C    0.000993   0.000000  -0.036338   0.000000   0.000000   0.000004
    22  C    0.000001  -0.000005   0.000000   0.640149   0.001746   0.002036
    23  C   -0.000044   0.000000   0.002550   0.003498   0.003164   0.003321
    24  C    0.000000   0.000000   0.000042  -0.116458  -0.092993  -0.114147
    25  C   -0.003713   0.000000   0.253390   0.000000   0.000000   0.000000
    26  C    0.000000   0.000000  -0.000001  -0.003926   0.221071   0.516241
    27  H    0.010938   0.000000   0.000000   0.000000   0.000000   0.000000
    28  H    0.000103  -0.000008   0.000000   0.000000   0.000000   0.000000
    29  H    0.000000   0.000514   0.000000   0.000000   0.000000   0.000000
    30  H    0.000000   0.003939   0.000000   0.000000   0.000000   0.000000
    31  H    0.002233   0.000000   0.000000   0.000000   0.000000   0.000000
    32  H   -0.000003   0.000000   0.000000   0.000000   0.000000   0.000000
    33  H    0.000000   0.000000   0.000000   0.000000   0.000000   0.000000
    34  H   -0.000003  -0.000001   0.000000   0.000000   0.000000   0.000000
    35  H    0.000000   0.000000   0.000000   0.000000   0.000000   0.000000
    36  H    0.000000   0.000000   0.000000   0.000000   0.000000   0.000000
    37  H    0.000000   0.000000   0.000000   0.000000   0.000000   0.000000
    38  H    0.000000  -0.002030   0.000000   0.017827   0.000000   0.000000
    39  H    0.014879   0.000000   0.001264   0.000000   0.000000   0.000000
    40  H    0.000247   0.000000   0.000138   0.000000   0.000000  -0.000006
    41  H    0.000000   0.000000   0.002378  -0.000003   0.000263   0.021992
    42  H    0.008422   0.000000  -0.029862   0.000000   0.000000   0.000000
    43  H   -0.000023   0.000000  -0.030378   0.000000   0.000000   0.000000
    44  H    0.000000   0.000000   0.000000   0.000152   0.239953   0.005607
               7          8          9         10         11         12
     1  F   -0.003479   0.000000  -0.003174   0.001254  -0.000022  -0.001300
     2  F   -0.003448   0.000000   0.000000  -0.000055   0.007786   0.000000
     3  F    0.000000   0.000000  -0.001020   0.000000   0.000000   0.000000
     4  O    0.000000   0.000000  -0.000021   0.000000   0.000000   0.000000
     5  O    0.000000   0.000000  -0.000001   0.000000   0.000000   0.000000
     6  O    0.000000   0.000000   0.000100   0.000000   0.000000   0.000000
     7  N    7.267128  -0.004321  -0.000002   0.269025   0.266968  -0.057068
     8  N   -0.004321   7.031897   0.000000  -0.052168  -0.046843   0.285802
     9  N   -0.000002   0.000000   7.444916   0.000000   0.000000   0.000000
    10  C    0.269025  -0.052168   0.000000   5.240221  -0.075973   0.254676
    11  C    0.266968  -0.046843   0.000000  -0.075973   5.232554  -0.005456
    12  C   -0.057068   0.285802   0.000000   0.254676  -0.005456   5.305652
    13  C   -0.060668   0.281014   0.000000  -0.009663   0.233959  -0.089589
    14  C    0.322853  -0.000035   0.004195  -0.059812  -0.060761   0.002369
    15  C    0.005031   0.000000   0.191563   0.000186  -0.000074  -0.000013
    16  C   -0.085023   0.000008  -0.058439  -0.002557   0.002112   0.000096
    17  C   -0.000116   0.305649   0.000000   0.004748   0.004392  -0.084100
    18  C   -0.082345  -0.000004  -0.000475   0.000228  -0.000210  -0.000142
    19  C   -0.000457   0.000000  -0.030887   0.000001  -0.000018   0.000000
    20  C    0.004546   0.000000   0.005710  -0.000075   0.000506   0.000001
    21  C   -0.000001   0.000000   0.242116   0.000000   0.000000   0.000000
    22  C    0.000000   0.000000  -0.036039   0.000000   0.000000   0.000000
    23  C    0.000000   0.000000   0.239638   0.000000   0.000000   0.000000
    24  C    0.000000   0.000000  -0.016485   0.000000   0.000000   0.000000
    25  C    0.000000   0.000000  -0.051422  -0.000004   0.000000   0.000000
    26  C    0.000000   0.000000   0.004627   0.000000   0.000000   0.000000
    27  H   -0.027737   0.002136   0.000003   0.358961   0.003197  -0.033179
    28  H   -0.050247   0.002047   0.000000   0.347867  -0.003100  -0.060736
    29  H   -0.045233   0.001697   0.000000  -0.001668   0.350859  -0.000683
    30  H   -0.028572   0.002063   0.000000   0.003412   0.365766  -0.000104
    31  H    0.000332  -0.052994   0.000000  -0.052360   0.000348   0.312822
    32  H    0.002621  -0.034971   0.000000  -0.030820  -0.000130   0.359974
    33  H    0.002809  -0.035079   0.000000  -0.000104  -0.033196   0.004941
    34  H    0.001149  -0.054282   0.000000   0.000487  -0.053146  -0.006953
    35  H    0.000005  -0.032810   0.000000  -0.000146   0.000113   0.004700
    36  H    0.000005  -0.033085   0.000000   0.000127  -0.000140  -0.002808
    37  H   -0.000016  -0.051284   0.000000  -0.000161  -0.000149  -0.006021
    38  H   -0.000005   0.000000  -0.000004   0.000001   0.000000   0.000000
    39  H    0.000001   0.000000  -0.028657   0.000002   0.000000   0.000000
    40  H    0.000000   0.000000  -0.035568   0.000000   0.000000   0.000000
    41  H    0.000000   0.000000  -0.034373   0.000000   0.000000   0.000000
    42  H   -0.000001   0.000000  -0.002886  -0.000029   0.000000   0.000001
    43  H    0.000000   0.000000   0.002831   0.000000   0.000000   0.000000
    44  H    0.000000   0.000000   0.000000   0.000000   0.000000   0.000000
              13         14         15         16         17         18
     1  F   -0.000002  -0.059816  -0.065191   0.287155   0.000000   0.002209
     2  F    0.000129  -0.062045  -0.000189   0.002303   0.000000   0.313890
     3  F    0.000000   0.000000  -0.000068   0.000007   0.000000   0.000000
     4  O    0.000000  -0.000005   0.003311   0.000003   0.000000   0.000712
     5  O    0.000000   0.000000  -0.000002   0.000000   0.000000   0.000000
     6  O    0.000000   0.000000   0.000002   0.000000   0.000000   0.000000
     7  N   -0.060668   0.322853   0.005031  -0.085023  -0.000116  -0.082345
     8  N    0.281014  -0.000035   0.000000   0.000008   0.305649  -0.000004
     9  N    0.000000   0.004195   0.191563  -0.058439   0.000000  -0.000475
    10  C   -0.009663  -0.059812   0.000186  -0.002557   0.004748   0.000228
    11  C    0.233959  -0.060761  -0.000074   0.002112   0.004392  -0.000210
    12  C   -0.089589   0.002369  -0.000013   0.000096  -0.084100  -0.000142
    13  C    5.326901   0.003380   0.000000   0.000031  -0.083730   0.000325
    14  C    0.003380   5.633573  -0.044829   0.109319   0.000002   0.054509
    15  C    0.000000  -0.044829   5.477179   0.119170   0.000000  -0.041817
    16  C    0.000031   0.109319   0.119170   5.367894   0.000000   0.003130
    17  C   -0.083730   0.000002   0.000000   0.000000   5.184855   0.000000
    18  C    0.000325   0.054509  -0.041817   0.003130   0.000000   5.341985
    19  C    0.000000  -0.041319   0.187483   0.010078   0.000000  -0.014681
    20  C    0.000008  -0.068625  -0.051030  -0.050797   0.000000   0.143683
    21  C    0.000000   0.000163  -0.046696  -0.000271   0.000000  -0.000008
    22  C    0.000000  -0.000794   0.003987   0.005976   0.000000   0.009277
    23  C    0.000000  -0.000092  -0.068378   0.000941   0.000000   0.000023
    24  C    0.000000  -0.000003  -0.024146  -0.000624   0.000000   0.000000
    25  C    0.000000  -0.000047   0.001533  -0.000157   0.000000   0.000000
    26  C    0.000000   0.000000  -0.000583  -0.000003   0.000000   0.000000
    27  H   -0.000032  -0.008589  -0.000088  -0.000098  -0.000081  -0.000137
    28  H   -0.000351   0.000604   0.000025   0.000262  -0.000109   0.000648
    29  H   -0.057237  -0.000690   0.000003  -0.000235  -0.000106   0.001278
    30  H   -0.036023  -0.004595   0.000003   0.000409  -0.000084  -0.000657
    31  H   -0.006737  -0.000287   0.000016   0.000191  -0.003732   0.000007
    32  H    0.004958  -0.000016   0.000000  -0.000005  -0.004096   0.000001
    33  H    0.361825  -0.000050   0.000000  -0.000002  -0.004133   0.000001
    34  H    0.316756   0.000001   0.000001  -0.000064  -0.003895   0.000010
    35  H   -0.002724   0.000000   0.000000   0.000000   0.366682   0.000000
    36  H    0.004722   0.000000   0.000000   0.000000   0.366316   0.000000
    37  H   -0.006098  -0.000001   0.000000   0.000000   0.326733   0.000000
    38  H    0.000000   0.005055   0.003965  -0.000645   0.000000  -0.034451
    39  H    0.000000   0.000221  -0.004412  -0.000650   0.000000  -0.000011
    40  H    0.000000   0.000006   0.002249   0.000302   0.000000   0.000000
    41  H    0.000000   0.000000   0.002680  -0.000072   0.000000   0.000000
    42  H    0.000000   0.000040   0.000019  -0.000049   0.000000  -0.000004
    43  H    0.000000   0.000001  -0.000088   0.000039   0.000000   0.000000
    44  H    0.000000   0.000000   0.000000   0.000000   0.000000   0.000000
              19         20         21         22         23         24
     1  F    0.002510  -0.000218   0.000993   0.000001  -0.000044   0.000000
     2  F    0.002990  -0.061741   0.000000  -0.000005   0.000000   0.000000
     3  F    0.000000   0.000000  -0.036338   0.000000   0.002550   0.000042
     4  O   -0.126348   0.003923   0.000000   0.640149   0.003498  -0.116458
     5  O    0.000091   0.000000   0.000000   0.001746   0.003164  -0.092993
     6  O   -0.000016   0.000000   0.000004   0.002036   0.003321  -0.114147
     7  N   -0.000457   0.004546  -0.000001   0.000000   0.000000   0.000000
     8  N    0.000000   0.000000   0.000000   0.000000   0.000000   0.000000
     9  N   -0.030887   0.005710   0.242116  -0.036039   0.239638  -0.016485
    10  C    0.000001  -0.000075   0.000000   0.000000   0.000000   0.000000
    11  C   -0.000018   0.000506   0.000000   0.000000   0.000000   0.000000
    12  C    0.000000   0.000001   0.000000   0.000000   0.000000   0.000000
    13  C    0.000000   0.000008   0.000000   0.000000   0.000000   0.000000
    14  C   -0.041319  -0.068625   0.000163  -0.000794  -0.000092  -0.000003
    15  C    0.187483  -0.051030  -0.046696   0.003987  -0.068378  -0.024146
    16  C    0.010078  -0.050797  -0.000271   0.005976   0.000941  -0.000624
    17  C    0.000000   0.000000   0.000000   0.000000   0.000000   0.000000
    18  C   -0.014681   0.143683  -0.000008   0.009277   0.000023   0.000000
    19  C    6.140756   0.214861   0.001332  -0.035335  -0.011035  -0.174691
    20  C    0.214861   5.753729  -0.000065  -0.075261  -0.001311   0.015434
    21  C    0.001332  -0.000065   5.430799   0.000031  -0.071877   0.001998
    22  C   -0.035335  -0.075261   0.000031   5.194086  -0.029818  -0.054429
    23  C   -0.011035  -0.001311  -0.071877  -0.029818   5.134281   0.303516
    24  C   -0.174691   0.015434   0.001998  -0.054429   0.303516   6.454208
    25  C   -0.000057   0.000001   0.170369  -0.000001   0.000502  -0.000068
    26  C    0.005836   0.000006  -0.000054  -0.036950  -0.090755   0.061634
    27  H   -0.000013   0.000018   0.000002   0.000000   0.000000   0.000000
    28  H   -0.000002  -0.000004   0.000000   0.000000   0.000000   0.000000
    29  H   -0.000001  -0.000016   0.000000   0.000000   0.000000   0.000000
    30  H   -0.000009  -0.000063   0.000000   0.000000   0.000000   0.000000
    31  H    0.000000   0.000000  -0.000001   0.000000   0.000000   0.000000
    32  H    0.000000   0.000000   0.000000   0.000000   0.000000   0.000000
    33  H    0.000000   0.000000   0.000000   0.000000   0.000000   0.000000
    34  H    0.000000   0.000000   0.000000   0.000000   0.000000   0.000000
    35  H    0.000000   0.000000   0.000000   0.000000   0.000000   0.000000
    36  H    0.000000   0.000000   0.000000   0.000000   0.000000   0.000000
    37  H    0.000000   0.000000   0.000000   0.000000   0.000000   0.000000
    38  H   -0.058712   0.370683   0.000000   0.000916  -0.000066   0.001485
    39  H    0.000205   0.000005   0.315726   0.000003   0.003163  -0.000058
    40  H   -0.000041   0.000001   0.355284  -0.000014  -0.002374   0.000535
    41  H   -0.000393   0.000000  -0.002437   0.002835   0.358881  -0.052270
    42  H    0.000002   0.000002  -0.049230  -0.000001   0.000012   0.000008
    43  H    0.000000   0.000000  -0.049742   0.000000   0.000174   0.000002
    44  H    0.000005   0.000000   0.000000  -0.000104  -0.000299   0.012613
              25         26         27         28         29         30
     1  F   -0.003713   0.000000   0.010938   0.000103   0.000000   0.000000
     2  F    0.000000   0.000000   0.000000  -0.000008   0.000514   0.003939
     3  F    0.253390  -0.000001   0.000000   0.000000   0.000000   0.000000
     4  O    0.000000  -0.003926   0.000000   0.000000   0.000000   0.000000
     5  O    0.000000   0.221071   0.000000   0.000000   0.000000   0.000000
     6  O    0.000000   0.516241   0.000000   0.000000   0.000000   0.000000
     7  N    0.000000   0.000000  -0.027737  -0.050247  -0.045233  -0.028572
     8  N    0.000000   0.000000   0.002136   0.002047   0.001697   0.002063
     9  N   -0.051422   0.004627   0.000003   0.000000   0.000000   0.000000
    10  C   -0.000004   0.000000   0.358961   0.347867  -0.001668   0.003412
    11  C    0.000000   0.000000   0.003197  -0.003100   0.350859   0.365766
    12  C    0.000000   0.000000  -0.033179  -0.060736  -0.000683  -0.000104
    13  C    0.000000   0.000000  -0.000032  -0.000351  -0.057237  -0.036023
    14  C   -0.000047   0.000000  -0.008589   0.000604  -0.000690  -0.004595
    15  C    0.001533  -0.000583  -0.000088   0.000025   0.000003   0.000003
    16  C   -0.000157  -0.000003  -0.000098   0.000262  -0.000235   0.000409
    17  C    0.000000   0.000000  -0.000081  -0.000109  -0.000106  -0.000084
    18  C    0.000000   0.000000  -0.000137   0.000648   0.001278  -0.000657
    19  C   -0.000057   0.005836  -0.000013  -0.000002  -0.000001  -0.000009
    20  C    0.000001   0.000006   0.000018  -0.000004  -0.000016  -0.000063
    21  C    0.170369  -0.000054   0.000002   0.000000   0.000000   0.000000
    22  C   -0.000001  -0.036950   0.000000   0.000000   0.000000   0.000000
    23  C    0.000502  -0.090755   0.000000   0.000000   0.000000   0.000000
    24  C   -0.000068   0.061634   0.000000   0.000000   0.000000   0.000000
    25  C    5.120202   0.000002  -0.000023   0.000000   0.000000   0.000000
    26  C    0.000002   4.688085   0.000000   0.000000   0.000000   0.000000
    27  H   -0.000023   0.000000   0.516646  -0.026938  -0.000079  -0.000065
    28  H    0.000000   0.000000  -0.026938   0.568208   0.007686  -0.000020
    29  H    0.000000   0.000000  -0.000079   0.007686   0.559173  -0.026526
    30  H    0.000000   0.000000  -0.000065  -0.000020  -0.026526   0.508076
    31  H    0.000000   0.000000   0.000054   0.005349   0.000203   0.000067
    32  H    0.000000   0.000000  -0.001960  -0.000258   0.000040   0.000002
    33  H    0.000000   0.000000   0.000001   0.000036  -0.000360  -0.001655
    34  H    0.000000   0.000000   0.000051   0.000254   0.004972   0.000245
    35  H    0.000000   0.000000   0.000001   0.000000  -0.000007  -0.000006
    36  H    0.000000   0.000000  -0.000006  -0.000008   0.000000   0.000001
    37  H    0.000000   0.000000   0.000011   0.000018   0.000015   0.000012
    38  H    0.000000   0.000005   0.000000   0.000000   0.000000   0.000003
    39  H   -0.033143   0.000000  -0.000006   0.000000   0.000000   0.000000
    40  H   -0.048727  -0.000017   0.000000   0.000000   0.000000   0.000000
    41  H    0.000093   0.000483   0.000000   0.000000   0.000000   0.000000
    42  H    0.318211   0.000000   0.000484  -0.000001   0.000000   0.000000
    43  H    0.314739   0.000000  -0.000001   0.000000   0.000000   0.000000
    44  H    0.000000  -0.031205   0.000000   0.000000   0.000000   0.000000
              31         32         33         34         35         36
     1  F    0.002233  -0.000003   0.000000  -0.000003   0.000000   0.000000
     2  F    0.000000   0.000000   0.000000  -0.000001   0.000000   0.000000
     3  F    0.000000   0.000000   0.000000   0.000000   0.000000   0.000000
     4  O    0.000000   0.000000   0.000000   0.000000   0.000000   0.000000
     5  O    0.000000   0.000000   0.000000   0.000000   0.000000   0.000000
     6  O    0.000000   0.000000   0.000000   0.000000   0.000000   0.000000
     7  N    0.000332   0.002621   0.002809   0.001149   0.000005   0.000005
     8  N   -0.052994  -0.034971  -0.035079  -0.054282  -0.032810  -0.033085
     9  N    0.000000   0.000000   0.000000   0.000000   0.000000   0.000000
    10  C   -0.052360  -0.030820  -0.000104   0.000487  -0.000146   0.000127
    11  C    0.000348  -0.000130  -0.033196  -0.053146   0.000113  -0.000140
    12  C    0.312822   0.359974   0.004941  -0.006953   0.004700  -0.002808
    13  C   -0.006737   0.004958   0.361825   0.316756  -0.002724   0.004722
    14  C   -0.000287  -0.000016  -0.000050   0.000001   0.000000   0.000000
    15  C    0.000016   0.000000   0.000000   0.000001   0.000000   0.000000
    16  C    0.000191  -0.000005  -0.000002  -0.000064   0.000000   0.000000
    17  C   -0.003732  -0.004096  -0.004133  -0.003895   0.366682   0.366316
    18  C    0.000007   0.000001   0.000001   0.000010   0.000000   0.000000
    19  C    0.000000   0.000000   0.000000   0.000000   0.000000   0.000000
    20  C    0.000000   0.000000   0.000000   0.000000   0.000000   0.000000
    21  C   -0.000001   0.000000   0.000000   0.000000   0.000000   0.000000
    22  C    0.000000   0.000000   0.000000   0.000000   0.000000   0.000000
    23  C    0.000000   0.000000   0.000000   0.000000   0.000000   0.000000
    24  C    0.000000   0.000000   0.000000   0.000000   0.000000   0.000000
    25  C    0.000000   0.000000   0.000000   0.000000   0.000000   0.000000
    26  C    0.000000   0.000000   0.000000   0.000000   0.000000   0.000000
    27  H    0.000054  -0.001960   0.000001   0.000051   0.000001  -0.000006
    28  H    0.005349  -0.000258   0.000036   0.000254   0.000000  -0.000008
    29  H    0.000203   0.000040  -0.000360   0.004972  -0.000007   0.000000
    30  H    0.000067   0.000002  -0.001655   0.000245  -0.000006   0.000001
    31  H    0.640632  -0.036673  -0.000251   0.013185  -0.000279  -0.001246
    32  H   -0.036673   0.540755  -0.000051  -0.000252   0.000124   0.005692
    33  H   -0.000251  -0.000051   0.537998  -0.036620   0.005615   0.000129
    34  H    0.013185  -0.000252  -0.036620   0.641488  -0.001248  -0.000288
    35  H   -0.000279   0.000124   0.005615  -0.001248   0.523793  -0.023447
    36  H   -0.001246   0.005692   0.000129  -0.000288  -0.023447   0.525918
    37  H    0.012051  -0.001434  -0.001407   0.012305  -0.038106  -0.038260
    38  H    0.000000   0.000000   0.000000   0.000000   0.000000   0.000000
    39  H    0.000002   0.000000   0.000000   0.000000   0.000000   0.000000
    40  H    0.000000   0.000000   0.000000   0.000000   0.000000   0.000000
    41  H    0.000000   0.000000   0.000000   0.000000   0.000000   0.000000
    42  H   -0.000001   0.000000   0.000000   0.000000   0.000000   0.000000
    43  H    0.000000   0.000000   0.000000   0.000000   0.000000   0.000000
    44  H    0.000000   0.000000   0.000000   0.000000   0.000000   0.000000
              37         38         39         40         41         42
     1  F    0.000000   0.000000   0.014879   0.000247   0.000000   0.008422
     2  F    0.000000  -0.002030   0.000000   0.000000   0.000000   0.000000
     3  F    0.000000   0.000000   0.001264   0.000138   0.002378  -0.029862
     4  O    0.000000   0.017827   0.000000   0.000000  -0.000003   0.000000
     5  O    0.000000   0.000000   0.000000   0.000000   0.000263   0.000000
     6  O    0.000000   0.000000   0.000000  -0.000006   0.021992   0.000000
     7  N   -0.000016  -0.000005   0.000001   0.000000   0.000000  -0.000001
     8  N   -0.051284   0.000000   0.000000   0.000000   0.000000   0.000000
     9  N    0.000000  -0.000004  -0.028657  -0.035568  -0.034373  -0.002886
    10  C   -0.000161   0.000001   0.000002   0.000000   0.000000  -0.000029
    11  C   -0.000149   0.000000   0.000000   0.000000   0.000000   0.000000
    12  C   -0.006021   0.000000   0.000000   0.000000   0.000000   0.000001
[...]
    15  C    0.190435  -0.053707  -0.043592   0.004769  -0.067664  -0.026736
    16  C    0.003009  -0.052152  -0.000803   0.005995   0.001439  -0.000726
    17  C    0.000000   0.000000   0.000000   0.000000   0.000000   0.000000
    18  C   -0.015622   0.155857  -0.000007   0.009277   0.000021   0.000002
    19  C    6.131276   0.223142   0.001319  -0.025298  -0.014239  -0.171243
    20  C    0.223142   5.737581  -0.000068  -0.075386  -0.001310   0.015577
    21  C    0.001319  -0.000068   5.437018   0.000036  -0.071449   0.001531
    22  C   -0.025298  -0.075386   0.000036   5.187324  -0.028985  -0.057776
    23  C   -0.014239  -0.001310  -0.071449  -0.028985   5.167919   0.284591
    24  C   -0.171243   0.015577   0.001531  -0.057776   0.284591   6.482551
    25  C   -0.000092   0.000001   0.180344  -0.000007  -0.000759  -0.000073
    26  C    0.005868   0.000002  -0.000060  -0.037595  -0.090555   0.055267
    27  H   -0.000016   0.000009   0.000009   0.000000   0.000000   0.000000
    28  H    0.000000  -0.000001   0.000000   0.000000   0.000000   0.000000
    29  H    0.000000  -0.000007   0.000000   0.000000   0.000000   0.000000
    30  H   -0.000025   0.000188   0.000000   0.000000   0.000000   0.000000
    31  H   -0.000003   0.000000  -0.000035   0.000000   0.000000   0.000000
    32  H    0.000000   0.000000   0.000000   0.000000   0.000000   0.000000
    33  H    0.000000   0.000000   0.000000   0.000000   0.000000   0.000000
    34  H    0.000000  -0.000006   0.000000   0.000000   0.000000   0.000000
    35  H    0.000000   0.000000   0.000000   0.000000   0.000000   0.000000
    36  H    0.000000   0.000000   0.000000   0.000000   0.000000   0.000000
    37  H    0.000000   0.000000   0.000000   0.000000   0.000000   0.000000
    38  H   -0.059068   0.368578   0.000000   0.000871  -0.000068   0.001563
    39  H    0.000159   0.000005   0.315248   0.000002   0.003439  -0.000040
    40  H   -0.000024   0.000001   0.357831  -0.000007  -0.003444   0.000425
    41  H   -0.000417  -0.000001  -0.002595   0.003067   0.348863  -0.049074
    42  H   -0.000002   0.000002  -0.050040  -0.000001   0.000031   0.000016
    43  H    0.000000   0.000000  -0.049500   0.000000   0.000343   0.000005
    44  H    0.000005   0.000000   0.000000  -0.000070  -0.000285   0.011856
              25         26         27         28         29         30
     1  F   -0.004093   0.000000   0.012190   0.000193   0.000000   0.000000
     2  F    0.000000   0.000000   0.000000  -0.000001  -0.000119   0.023908
     3  F    0.251558  -0.000010   0.000000   0.000000   0.000000   0.000000
     4  O    0.000000  -0.004023   0.000000   0.000000   0.000000   0.000000
     5  O    0.000000   0.222418   0.000000   0.000000   0.000000   0.000000
     6  O    0.000000   0.519841   0.000000   0.000000   0.000000   0.000000
     7  N    0.000000   0.000000  -0.026223  -0.041542  -0.038743  -0.025993
     8  N    0.000000   0.000000   0.001973   0.003315   0.003879   0.001701
     9  N   -0.057803   0.004756   0.000001   0.000000   0.000000   0.000000
    10  C    0.000000   0.000000   0.359211   0.352474  -0.002299   0.002755
    11  C    0.000000   0.000000   0.002979  -0.004084   0.353893   0.342183
    12  C    0.000000   0.000000  -0.038927  -0.059954  -0.001197  -0.000174
    13  C    0.000000   0.000000  -0.000103  -0.000832  -0.059997  -0.037146
    14  C   -0.000038   0.000000  -0.005140   0.002800   0.002474  -0.008440
    15  C    0.001689  -0.000571   0.000030   0.000009   0.000001   0.000016
    16  C   -0.000144  -0.000003  -0.001175   0.000208  -0.000148  -0.000053
    17  C    0.000000   0.000000  -0.000078  -0.000080  -0.000092  -0.000070
    18  C    0.000000   0.000000   0.000134   0.000074   0.000260  -0.000857
    19  C   -0.000092   0.005868  -0.000016   0.000000   0.000000  -0.000025
    20  C    0.000001   0.000002   0.000009  -0.000001  -0.000007   0.000188
    21  C    0.180344  -0.000060   0.000009   0.000000   0.000000   0.000000
    22  C   -0.000007  -0.037595   0.000000   0.000000   0.000000   0.000000
    23  C   -0.000759  -0.090555   0.000000   0.000000   0.000000   0.000000
    24  C   -0.000073   0.055267   0.000000   0.000000   0.000000   0.000000
    25  C    5.133940   0.000006  -0.000013   0.000000   0.000000   0.000000
    26  C    0.000006   4.688532   0.000000   0.000000   0.000000   0.000000
    27  H   -0.000013   0.000000   0.506144  -0.019869   0.000089  -0.000063
    28  H    0.000000   0.000000  -0.019869   0.534085   0.007585   0.000184
    29  H    0.000000   0.000000   0.000089   0.007585   0.528258  -0.017024
    30  H    0.000000   0.000000  -0.000063   0.000184  -0.017024   0.493539
    31  H    0.000004   0.000000  -0.000193   0.005202   0.000239   0.000068
    32  H    0.000000   0.000000  -0.001131  -0.000371   0.000023   0.000004
    33  H    0.000000   0.000000   0.000003   0.000016  -0.000480  -0.000698
    34  H    0.000000   0.000000   0.000057   0.000218   0.004873   0.001328
    35  H    0.000000   0.000000   0.000001  -0.000001  -0.000012  -0.000004
    36  H    0.000000   0.000000  -0.000005  -0.000010  -0.000002   0.000001
    37  H    0.000000   0.000000   0.000008   0.000017   0.000020   0.000008
    38  H    0.000000   0.000005   0.000000   0.000000   0.000000   0.000008
    39  H   -0.029180   0.000000  -0.000015   0.000000   0.000000   0.000000
    40  H   -0.050933  -0.000011   0.000000   0.000000   0.000000   0.000000
    41  H   -0.001232  -0.000646   0.000000   0.000000   0.000000   0.000000
    42  H    0.310767   0.000000   0.000158   0.000000   0.000000   0.000000
    43  H    0.316054   0.000000   0.000000   0.000000   0.000000   0.000000
    44  H    0.000000  -0.028709   0.000000   0.000000   0.000000   0.000000
              31         32         33         34         35         36
     1  F    0.014151   0.000032   0.000000  -0.000020   0.000000   0.000000
     2  F    0.000000   0.000000   0.000000   0.000000   0.000000   0.000000
     3  F    0.000000   0.000000   0.000000   0.000000   0.000000   0.000000
     4  O    0.000000   0.000000   0.000000   0.000000   0.000000   0.000000
     5  O    0.000000   0.000000   0.000000   0.000000   0.000000   0.000000
     6  O    0.000000   0.000000   0.000000   0.000000   0.000000   0.000000
     7  N   -0.000235   0.002691   0.002782  -0.000968   0.000005   0.000005
     8  N   -0.045437  -0.034055  -0.033933  -0.048487  -0.032597  -0.032732
     9  N    0.000001   0.000000   0.000000   0.000000   0.000000   0.000000
    10  C   -0.054003  -0.029381  -0.000063   0.000255  -0.000126   0.000118
    11  C    0.000248  -0.000092  -0.030133  -0.053248   0.000119  -0.000124
    12  C    0.303392   0.353832   0.004377  -0.006043   0.004348  -0.002403
    13  C   -0.006089   0.004490   0.357315   0.318979  -0.002352   0.004400
    14  C    0.000452   0.000000  -0.000008   0.002377   0.000000   0.000000
    15  C    0.000115   0.000001   0.000000   0.000000   0.000000   0.000000
    16  C   -0.000461  -0.000003  -0.000007  -0.000249   0.000000   0.000000
    17  C   -0.002947  -0.003674  -0.003826  -0.002946   0.365843   0.365714
    18  C    0.000011   0.000001  -0.000006   0.000043   0.000000   0.000000
    19  C   -0.000003   0.000000   0.000000   0.000000   0.000000   0.000000
    20  C    0.000000   0.000000   0.000000  -0.000006   0.000000   0.000000
    21  C   -0.000035   0.000000   0.000000   0.000000   0.000000   0.000000
    22  C    0.000000   0.000000   0.000000   0.000000   0.000000   0.000000
    23  C    0.000000   0.000000   0.000000   0.000000   0.000000   0.000000
    24  C    0.000000   0.000000   0.000000   0.000000   0.000000   0.000000
    25  C    0.000004   0.000000   0.000000   0.000000   0.000000   0.000000
    26  C    0.000000   0.000000   0.000000   0.000000   0.000000   0.000000
    27  H   -0.000193  -0.001131   0.000003   0.000057   0.000001  -0.000005
    28  H    0.005202  -0.000371   0.000016   0.000218  -0.000001  -0.000010
    29  H    0.000239   0.000023  -0.000480   0.004873  -0.000012  -0.000002
    30  H    0.000068   0.000004  -0.000698   0.001328  -0.000004   0.000001
    31  H    0.630824  -0.033818  -0.000199   0.010731  -0.000224  -0.001016
    32  H   -0.033818   0.542089  -0.000040  -0.000228   0.000115   0.005462
    33  H   -0.000199  -0.000040   0.535527  -0.036063   0.005529   0.000119
    34  H    0.010731  -0.000228  -0.036063   0.631874  -0.001067  -0.000257
    35  H   -0.000224   0.000115   0.005529  -0.001067   0.524293  -0.022495
    36  H   -0.001016   0.005462   0.000119  -0.000257  -0.022495   0.526118
    37  H    0.009208  -0.001206  -0.001150   0.009561  -0.039087  -0.039444
    38  H    0.000000   0.000000   0.000000   0.000000   0.000000   0.000000
    39  H    0.000246   0.000000   0.000000   0.000001   0.000000   0.000000
    40  H    0.000000   0.000000   0.000000   0.000000   0.000000   0.000000
    41  H    0.000000   0.000000   0.000000   0.000000   0.000000   0.000000
    42  H   -0.000007   0.000000   0.000000   0.000000   0.000000   0.000000
    43  H    0.000000   0.000000   0.000000   0.000000   0.000000   0.000000
    44  H    0.000000   0.000000   0.000000   0.000000   0.000000   0.000000
              37         38         39         40         41         42
     1  F    0.000000   0.000000   0.022065   0.000298   0.000000   0.008054
     2  F    0.000000  -0.001885   0.000000   0.000000   0.000000   0.000000
     3  F    0.000000   0.000000   0.001210  -0.000359   0.011930  -0.026685
     4  O    0.000000   0.018938   0.000000   0.000000  -0.000001   0.000000
     5  O    0.000000   0.000000   0.000000   0.000000   0.000259   0.000000
     6  O    0.000000   0.000000   0.000000  -0.000003   0.021109   0.000000
     7  N   -0.000006  -0.000007   0.000003   0.000000   0.000000   0.000000
     8  N   -0.046555   0.000000   0.000000   0.000000   0.000000   0.000000
     9  N    0.000000  -0.000005  -0.024937  -0.035094  -0.035027  -0.002094
    10  C   -0.000150   0.000000   0.000004   0.000000   0.000000  -0.000017
    11  C   -0.000135   0.000000   0.000000   0.000000   0.000000   0.000000
    12  C   -0.004858   0.000000  -0.000019   0.000000   0.000000   0.000003
    13  C   -0.005360   0.000000   0.000000   0.000000   0.000000   0.000000
    14  C    0.000000   0.005193   0.000293   0.000007   0.000000   0.000056
    15  C    0.000000   0.004095  -0.005048   0.002023   0.002462   0.000018
    16  C   -0.000001  -0.000578  -0.001993   0.000314  -0.000068  -0.000064
    17  C    0.325410   0.000000   0.000000   0.000000   0.000000   0.000000
    18  C    0.000000  -0.034164  -0.000012   0.000000   0.000000  -0.000003
    19  C    0.000000  -0.059068   0.000159  -0.000024  -0.000417  -0.000002
    20  C    0.000000   0.368578   0.000005   0.000001  -0.000001   0.000002
    21  C    0.000000   0.000000   0.315248   0.357831  -0.002595  -0.050040
    22  C    0.000000   0.000871   0.000002  -0.000007   0.003067  -0.000001
    23  C    0.000000  -0.000068   0.003439  -0.003444   0.348863   0.000031
    24  C    0.000000   0.001563  -0.000040   0.000425  -0.049074   0.000016
    25  C    0.000000   0.000000  -0.029180  -0.050933  -0.001232   0.310767
    26  C    0.000000   0.000005   0.000000  -0.000011  -0.000646   0.000000
    27  H    0.000008   0.000000  -0.000015   0.000000   0.000000   0.000158
    28  H    0.000017   0.000000   0.000000   0.000000   0.000000   0.000000
    29  H    0.000020   0.000000   0.000000   0.000000   0.000000   0.000000
    30  H    0.000008   0.000008   0.000000   0.000000   0.000000   0.000000
    31  H    0.009208   0.000000   0.000246   0.000000   0.000000  -0.000007
    32  H   -0.001206   0.000000   0.000000   0.000000   0.000000   0.000000
    33  H   -0.001150   0.000000   0.000000   0.000000   0.000000   0.000000
    34  H    0.009561   0.000000   0.000001   0.000000   0.000000   0.000000
    35  H   -0.039087   0.000000   0.000000   0.000000   0.000000   0.000000
    36  H   -0.039444   0.000000   0.000000   0.000000   0.000000   0.000000
    37  H    0.630613   0.000000   0.000000   0.000000   0.000000   0.000000
    38  H    0.000000   0.450727   0.000000   0.000000   0.000000   0.000000
    39  H    0.000000   0.000000   0.490597  -0.017671   0.000265   0.000738
    40  H    0.000000   0.000000  -0.017671   0.503581   0.001882   0.004555
    41  H    0.000000   0.000000   0.000265   0.001882   0.430364   0.000288
    42  H    0.000000   0.000000   0.000738   0.004555   0.000288   0.588197
    43  H    0.000000   0.000000   0.002314  -0.003445   0.000061  -0.041669
    44  H    0.000000   0.000000   0.000000   0.000000  -0.000015   0.000000
              43         44
     1  F   -0.000013   0.000000
     2  F    0.000000   0.000000
     3  F   -0.027480   0.000000
     4  O    0.000000   0.000200
     5  O    0.000000   0.237492
     6  O    0.000000   0.004377
     7  N    0.000000   0.000000
     8  N    0.000000   0.000000
     9  N    0.002998   0.000000
    10  C    0.000000   0.000000
    11  C    0.000000   0.000000
    12  C    0.000000   0.000000
    13  C    0.000000   0.000000
    14  C    0.000001   0.000000
    15  C   -0.000097   0.000000
    16  C    0.000038   0.000000
    17  C    0.000000   0.000000
    18  C    0.000000   0.000000
    19  C    0.000000   0.000005
    20  C    0.000000   0.000000
    21  C   -0.049500   0.000000
    22  C    0.000000  -0.000070
    23  C    0.000343  -0.000285
    24  C    0.000005   0.011856
    25  C    0.316054   0.000000
    26  C    0.000000  -0.028709
    27  H    0.000000   0.000000
    28  H    0.000000   0.000000
    29  H    0.000000   0.000000
    30  H    0.000000   0.000000
    31  H    0.000000   0.000000
    32  H    0.000000   0.000000
    33  H    0.000000   0.000000
    34  H    0.000000   0.000000
    35  H    0.000000   0.000000
    36  H    0.000000   0.000000
    37  H    0.000000   0.000000
    38  H    0.000000   0.000000
    39  H    0.002314   0.000000
    40  H   -0.003445   0.000000
    41  H    0.000061  -0.000015
    42  H   -0.041669   0.000000
    43  H    0.603000   0.000000
    44  H    0.000000   0.414822
 Mulliken charges:
               1
     1  F   -0.284867
     2  F   -0.283717
     3  F   -0.283475
     4  O   -0.493896
     5  O   -0.541260
     6  O   -0.513320
     7  N   -0.670753
     8  N   -0.497259
     9  N   -0.824815
    10  C   -0.207330
    11  C   -0.232641
    12  C   -0.202264
    13  C   -0.193651
    14  C    0.293393
    15  C    0.345171
    16  C    0.264438
    17  C   -0.383308
    18  C    0.298262
    19  C   -0.074661
    20  C   -0.198159
    21  C   -0.279398
    22  C    0.412118
    23  C    0.216325
    24  C   -0.208685
    25  C   -0.049997
    26  C    0.665488
    27  H    0.209954
    28  H    0.220364
    29  H    0.218525
    30  H    0.224656
    31  H    0.169777
    32  H    0.195257
    33  H    0.200935
    34  H    0.169284
    35  H    0.197711
    36  H    0.196551
    37  H    0.163106
    38  H    0.245797
    39  H    0.242324
    40  H    0.240075
    41  H    0.268527
    42  H    0.207700
    43  H    0.197390
    44  H    0.360327
 Sum of Mulliken charges =   0.00000
 Mulliken charges with hydrogens summed into heavy atoms:
               1
     1  F   -0.284867
     2  F   -0.283717
     3  F   -0.283475
     4  O   -0.493896
     5  O   -0.180933
     6  O   -0.513320
     7  N   -0.670753
     8  N   -0.497259
     9  N   -0.824815
    10  C    0.222989
    11  C    0.210540
    12  C    0.162770
    13  C    0.176567
    14  C    0.293393
    15  C    0.345171
    16  C    0.264438
    17  C    0.174060
    18  C    0.298262
    19  C   -0.074661
    20  C    0.047638
    21  C    0.203001
    22  C    0.412118
    23  C    0.484852
    24  C   -0.208685
    25  C    0.355093
    26  C    0.665488
 Electronic spatial extent (au):  <R**2>=          10970.3507
 Charge=              0.0000 electrons
 Dipole moment (field-independent basis, Debye):
    X=              5.8629    Y=              4.5395    Z=             -1.3718  Tot=              7.5407
 Quadrupole moment (field-independent basis, Debye-Ang):
   XX=           -155.0888   YY=           -150.1991   ZZ=           -147.5863
   XY=              1.1392   XZ=             -1.7552   YZ=             -1.2486
 Traceless Quadrupole moment (field-independent basis, Debye-Ang):
   XX=             -4.1307   YY=              0.7589   ZZ=              3.3718
   XY=              1.1392   XZ=             -1.7552   YZ=             -1.2486
 Octapole moment (field-independent basis, Debye-Ang**2):
  XXX=              8.7465  YYY=             70.8733  ZZZ=             11.5029  XYY=             43.2782
  XXY=            -32.0880  XXZ=            -23.1484  XZZ=             -2.0590  YZZ=              7.1738
  YYZ=             -7.9965  XYZ=             14.2822
 Hexadecapole moment (field-independent basis, Debye-Ang**3):
 XXXX=          -9773.7247 YYYY=          -2777.2462 ZZZZ=           -536.5843 XXXY=            397.1960
 XXXZ=           -155.4993 YYYX=           -106.4425 YYYZ=             -8.9934 ZZZX=             16.7507
 ZZZY=             16.1292 XXYY=          -2319.8454 XXZZ=          -1768.1651 YYZZ=           -557.0063
 XXYZ=             22.1710 YYXZ=             20.8667 ZZXY=             -5.0158
 N-N= 2.450464154559D+03 E-N=-8.037578839332D+03  KE= 1.329742819037D+03
 1\1\GINC-NODE046\FOpt\RB3LYP\3-21G\C17H18F3N3O3\SUPERCOMPUTO1\06-Jul-2
 020\0\\# opt b3lyp/3-21g geom=connectivity\\Title Card Required\\0,1\F
 ,-8.2508249054,9.8387711646,7.0499628822\F,-8.9617990516,5.1121397772,
 6.7366096795\F,-4.5106969908,11.6039792206,5.9263434771\O,-4.044514289
 1,5.514764723,7.1649232987\O,-1.5593540868,6.6306160869,7.0977743839\O
 ,-1.3960077755,8.9002141395,7.2744411274\N,-10.0291502037,7.6706430507
 ,6.682413467\N,-12.2495993247,8.9319679813,7.9863101942\N,-5.457237594
 8,9.3985483237,7.4079883363\C,-10.6244581057,8.9077076539,6.1311372837
 \C,-11.0404120782,6.8601970793,7.4093584529\C,-11.249679179,9.74986194
 3,7.258045388\C,-11.639609524,7.7032892539,8.5481959673\C,-8.671664847
 5,7.4861641668,6.8855284264\C,-6.3698354557,8.3465569224,7.2104292764\
 C,-7.7521747421,8.5307570703,7.0562439633\C,-12.9659577982,9.716438940
 3,9.011129851\C,-8.1085022428,6.1822711921,6.8887331322\C,-5.871800056
 1,7.0317614059,7.1563099011\C,-6.7655999432,5.9658595986,7.0160844049\
 C,-5.8509916813,10.8020544498,7.7231871439\C,-4.4191654333,6.702683213
 7,7.1949843816\C,-4.1204720094,9.1336660145,7.3494045926\C,-3.57050605
 73,7.8890408212,7.2440834309\C,-5.8329765324,11.6443235189,6.456412243
 9\C,-2.1001206239,7.8859419298,7.2099348034\H,-9.8706723194,9.47649767
 4,5.5928311205\H,-11.4196115427,8.603392273,5.4410668099\H,-11.8411512
 085,6.604343834,6.7067929762\H,-10.5815789259,5.948965131,7.7815976296
 \H,-10.4327047539,10.1024294158,7.9107617463\H,-11.7631404193,10.61874
 71446,6.8309594966\H,-12.4264463196,7.1303546995,9.051724656\H,-10.845
 2824966,7.9317229352,9.2846107558\H,-13.7324943424,9.0856700839,9.4731
 179875\H,-13.459909764,10.5672252438,8.5302380995\H,-12.3030366946,10.
 1020739439,9.8088566131\H,-6.3500964685,4.9678719624,6.9771451063\H,-6
 .8328739536,10.8115378446,8.1811000978\H,-5.1150057728,11.189642303,8.
 4305709522\H,-3.4619793656,9.9904510753,7.3869277148\H,-6.5426164011,1
 1.227572056,5.7374048014\H,-6.1085428122,12.6790383319,6.6861318043\H,
 -0.5677459068,6.7362444062,7.0831921424\\Version=ES64L-G09RevD.01\Stat
 e=1-A\HF=-1340.713949\RMSD=7.111e-09\RMSF=9.096e-06\Dipole=-2.2086362,
 1.8622075,0.6750255\Quadrupole=-3.2734226,0.6416296,2.631793,-0.681128
 5,-0.8425465,1.0481834\PG=C01 [X(C17H18F3N3O3)]\\@


 AN AIRPLANE IS A COLLECTION OF SPARE PARTS
 FLYING IN CLOSE FORMATION.
 Job cpu time:       0 days  1 hours 50 minutes 38.5 seconds.
 File lengths (MBytes):  RWF=     48 Int=      0 D2E=      0 Chk=      7 Scr=      1
 Normal termination of Gaussian 09 at Mon Jul  6 11:02:47 2020.
