 Entering Gaussian System, Link 0=g09
 Input=trovafloxacina.gjf
 Output=trovafloxacina.log
 Initial command:
 /usr/local/cluster_programs/g09/l1.exe "/tmp/scratch/63952.prometeo/Gau-5365.inp" -scrdir="/tmp/scratch/63952.prometeo/"
 Entering Link 1 = /usr/local/cluster_programs/g09/l1.exe PID=      5366.
  
 Copyright (c) 1988,1990,1992,1993,1995,1998,2003,2009,2013,
            Gaussian, Inc.  All Rights Reserved.
  
 This is part of the Gaussian(R) 09 program.  It is based on
 the Gaussian(R) 03 system (copyright 2003, Gaussian, Inc.),
 the Gaussian(R) 98 system (copyright 1998, Gaussian, Inc.),
 the Gaussian(R) 94 system (copyright 1995, Gaussian, Inc.),
 the Gaussian 92(TM) system (copyright 1992, Gaussian, Inc.),
 the Gaussian 90(TM) system (copyright 1990, Gaussian, Inc.),
 the Gaussian 88(TM) system (copyright 1988, Gaussian, Inc.),
 the Gaussian 86(TM) system (copyright 1986, Carnegie Mellon
 University), and the Gaussian 82(TM) system (copyright 1983,
 Carnegie Mellon University). Gaussian is a federally registered
 trademark of Gaussian, Inc.
  
 This software contains proprietary and confidential information,
 including trade secrets, belonging to Gaussian, Inc.
  
 This software is provided under written license and may be
 used, copied, transmitted, or stored only in accord with that
 written license.
  
 The following legend is applicable only to US Government
 contracts under FAR:
  
                    RESTRICTED RIGHTS LEGEND
  
 Use, reproduction and disclosure by the US Government is
 subject to restrictions as set forth in subparagraphs (a)
 and (c) of the Commercial Computer Software - Restricted
 Rights clause in FAR 52.227-19.
  
 Gaussian, Inc.
 340 Quinnipiac St., Bldg. 40, Wallingford CT 06492
  
  
 ---------------------------------------------------------------
 Warning -- This program may not be used in any manner that
 competes with the business of Gaussian, Inc. or will provide
 assistance to any competitor of Gaussian, Inc.  The licensee
 of this program is prohibited from giving any competitor of
 Gaussian, Inc. access to this program.  By using this program,
 the user acknowledges that Gaussian, Inc. is engaged in the
 business of creating and licensing software in the field of
 computational chemistry and represents and warrants to the
 licensee that it is not a competitor of Gaussian, Inc. and that
 it will not use this program in any manner prohibited above.
 ---------------------------------------------------------------
  

 Cite this work as:
 Gaussian 09, Revision D.01,
 M. J. Frisch, G. W. Trucks, H. B. Schlegel, G. E. Scuseria, 
 M. A. Robb, J. R. Cheeseman, G. Scalmani, V. Barone, B. Mennucci, 
 G. A. Petersson, H. Nakatsuji, M. Caricato, X. Li, H. P. Hratchian, 
 A. F. Izmaylov, J. Bloino, G. Zheng, J. L. Sonnenberg, M. Hada, 
 M. Ehara, K. Toyota, R. Fukuda, J. Hasegawa, M. Ishida, T. Nakajima, 
 Y. Honda, O. Kitao, H. Nakai, T. Vreven, J. A. Montgomery, Jr., 
 J. E. Peralta, F. Ogliaro, M. Bearpark, J. J. Heyd, E. Brothers, 
 K. N. Kudin, V. N. Staroverov, T. Keith, R. Kobayashi, J. Normand, 
 K. Raghavachari, A. Rendell, J. C. Burant, S. S. Iyengar, J. Tomasi, 
 M. Cossi, N. Rega, J. M. Millam, M. Klene, J. E. Knox, J. B. Cross, 
 V. Bakken, C. Adamo, J. Jaramillo, R. Gomperts, R. E. Stratmann, 
 O. Yazyev, A. J. Austin, R. Cammi, C. Pomelli, J. W. Ochterski, 
 R. L. Martin, K. Morokuma, V. G. Zakrzewski, G. A. Voth, 
 P. Salvador, J. J. Dannenberg, S. Dapprich, A. D. Daniels, 
 O. Farkas, J. B. Foresman, J. V. Ortiz, J. Cioslowski, 
 and D. J. Fox, Gaussian, Inc., Wallingford CT, 2013.
 
 ******************************************
 Gaussian 09:  ES64L-G09RevD.01 24-Apr-2013
                 6-Jul-2020 
 ******************************************
 %nprocshared=20
 Will use up to   20 processors via shared memory.
 -----------------------------------
 # opt b3lyp/3-21g geom=connectivity
 -----------------------------------
 1/14=-1,18=20,19=15,26=3,38=1,57=2/1,3;
 2/9=110,12=2,17=6,18=5,40=1/2;
 3/5=5,11=2,16=1,25=1,30=1,71=1,74=-5/1,2,3;
 4//1;
 5/5=2,38=5/2;
 6/7=2,8=2,9=2,10=2,28=1/1;
 7//1,2,3,16;
 1/14=-1,18=20,19=15,26=3/3(2);
 2/9=110/2;
 99//99;
 2/9=110/2;
 3/5=5,11=2,16=1,25=1,30=1,71=1,74=-5/1,2,3;
 4/5=5,16=3,69=1/1;
 5/5=2,38=5/2;
 7//1,2,3,16;
 1/14=-1,18=20,19=15,26=3/3(-5);
 2/9=110/2;
 6/7=2,8=2,9=2,10=2,19=2,28=1/1;
 99/9=1/99;
 -------------------
 Title Card Required
 -------------------
 Symbolic Z-matrix:
 Charge =  0 Multiplicity = 1
 N                     7.24955   5.59564   8.9409 
 C                     7.60145   6.28565   10.1737 
 C                     7.32483   5.31169   11.3084 
 C                     6.73696   4.25289   9.17599 
 C                     6.78328   4.03194   10.6809 
 H                     6.96807   7.19028   10.2942 
 H                     8.67511   6.57317   10.1654 
 H                     7.37112   3.49778   8.66386 
 H                     5.68455   4.18212   8.82809 
 H                     6.78592   5.62672   12.2278 
 O                     7.63427   7.77178   2.88596 
 O                     8.34062   9.90194   1.50076 
 O                     9.16747   11.5722   2.77942 
 N                     8.65367   9.48221   6.41591 
 N                     7.91468   7.48051   7.58642 
 C                     8.1041    8.149     6.41598 
 C                     7.74553   7.54165   5.20779 
 C                     8.82396   10.2045   5.17916 
 C                     8.49339   9.66696   3.9882 
 C                     7.93559   8.28888   3.94857 
 C                     7.21028   6.24628   5.23198 
 C                     7.39916   6.22148   7.64829 
 H                     5.92742   3.58499   11.2316 
 C                     7.03557   5.57864   6.44645 
 C                     8.69325   10.4477   2.736 
 H                     9.24428   11.203    5.22028 
 H                     6.92459   5.75105   4.31222 
 H                     8.52862   10.5296   0.72714 
 C                     9.86212   11.3077   10.0549 
 C                     10.4128   10.0827   9.66916 
 C                     10.0168   9.48333   8.47022 
 C                     8.91274   11.9339   9.24227 
 C                     8.51109   11.3373   8.04231 
 C                     9.061     10.1041   7.64817 
 F                     10.2496   11.889    11.217 
 H                     10.4585   8.53924   8.17632 
 F                     6.5127    4.32807   6.42815 
 C                     8.16996   4.04176   11.3141 
 H                     7.38      3.53788   13.1806 
 H                     9.04261   3.75994   13.1283 
 N                     8.23449   3.35412   12.6047 
 H                     9.0493    3.9778    10.6362 
 H                     8.48444   12.8811   9.54442 
 H                     11.149    9.59811   10.2972 
 F                     7.57121   11.9477   7.27733 
 

 GradGradGradGradGradGradGradGradGradGradGradGradGradGradGradGradGradGrad
 Berny optimization.
 Initialization pass.
                           ----------------------------
                           !    Initial Parameters    !
                           ! (Angstroms and Degrees)  !
 --------------------------                            --------------------------
 ! Name  Definition              Value          Derivative Info.                !
 --------------------------------------------------------------------------------
 ! R1    R(1,2)                  1.4559         estimate D2E/DX2                !
 ! R2    R(1,4)                  1.4564         estimate D2E/DX2                !
 ! R3    R(1,22)                 1.4439         estimate D2E/DX2                !
 ! R4    R(2,3)                  1.5207         estimate D2E/DX2                !
 ! R5    R(2,6)                  1.1109         estimate D2E/DX2                !
 ! R6    R(2,7)                  1.1115         estimate D2E/DX2                !
 ! R7    R(3,5)                  1.5247         estimate D2E/DX2                !
 ! R8    R(3,10)                 1.1113         estimate D2E/DX2                !
 ! R9    R(3,38)                 1.5255         estimate D2E/DX2                !
 ! R10   R(4,5)                  1.5217         estimate D2E/DX2                !
 ! R11   R(4,8)                  1.1111         estimate D2E/DX2                !
 ! R12   R(4,9)                  1.1107         estimate D2E/DX2                !
 ! R13   R(5,23)                 1.1115         estimate D2E/DX2                !
 ! R14   R(5,38)                 1.5244         estimate D2E/DX2                !
 ! R15   R(11,20)                1.2196         estimate D2E/DX2                !
 ! R16   R(12,25)                1.3957         estimate D2E/DX2                !
 ! R17   R(12,28)                1.0138         estimate D2E/DX2                !
 ! R18   R(13,25)                1.2212         estimate D2E/DX2                !
 ! R19   R(14,16)                1.442          estimate D2E/DX2                !
 ! R20   R(14,18)                1.4423         estimate D2E/DX2                !
 ! R21   R(14,34)                1.4391         estimate D2E/DX2                !
 ! R22   R(15,16)                1.3611         estimate D2E/DX2                !
 ! R23   R(15,22)                1.3619         estimate D2E/DX2                !
 ! R24   R(16,17)                1.399          estimate D2E/DX2                !
 ! R25   R(17,20)                1.4765         estimate D2E/DX2                !
 ! R26   R(17,21)                1.4018         estimate D2E/DX2                !
 ! R27   R(18,19)                1.3478         estimate D2E/DX2                !
 ! R28   R(18,26)                1.0841         estimate D2E/DX2                !
 ! R29   R(19,20)                1.4872         estimate D2E/DX2                !
 ! R30   R(19,25)                1.4891         estimate D2E/DX2                !
 ! R31   R(21,24)                1.3969         estimate D2E/DX2                !
 ! R32   R(21,27)                1.083          estimate D2E/DX2                !
 ! R33   R(22,24)                1.4106         estimate D2E/DX2                !
 ! R34   R(24,37)                1.3556         estimate D2E/DX2                !
 ! R35   R(29,30)                1.3974         estimate D2E/DX2                !
 ! R36   R(29,32)                1.3978         estimate D2E/DX2                !
 ! R37   R(29,35)                1.3559         estimate D2E/DX2                !
 ! R38   R(30,31)                1.3977         estimate D2E/DX2                !
 ! R39   R(30,44)                1.0822         estimate D2E/DX2                !
 ! R40   R(31,34)                1.4052         estimate D2E/DX2                !
 ! R41   R(31,36)                1.083          estimate D2E/DX2                !
 ! R42   R(32,33)                1.399          estimate D2E/DX2                !
 ! R43   R(32,43)                1.0826         estimate D2E/DX2                !
 ! R44   R(33,34)                1.4066         estimate D2E/DX2                !
 ! R45   R(33,45)                1.3569         estimate D2E/DX2                !
 ! R46   R(38,41)                1.4638         estimate D2E/DX2                !
 ! R47   R(38,42)                1.1122         estimate D2E/DX2                !
 ! R48   R(39,41)                1.0467         estimate D2E/DX2                !
 ! R49   R(40,41)                1.0449         estimate D2E/DX2                !
 ! A1    A(2,1,4)              112.6651         estimate D2E/DX2                !
 ! A2    A(2,1,22)             121.8402         estimate D2E/DX2                !
 ! A3    A(4,1,22)             125.4924         estimate D2E/DX2                !
 ! A4    A(1,2,3)              106.5171         estimate D2E/DX2                !
 ! A5    A(1,2,6)              109.8756         estimate D2E/DX2                !
 ! A6    A(1,2,7)              110.4712         estimate D2E/DX2                !
 ! A7    A(3,2,6)              109.6878         estimate D2E/DX2                !
 ! A8    A(3,2,7)              110.3003         estimate D2E/DX2                !
 ! A9    A(6,2,7)              109.9319         estimate D2E/DX2                !
 ! A10   A(2,3,5)              107.1623         estimate D2E/DX2                !
 ! A11   A(2,3,10)             121.5984         estimate D2E/DX2                !
 ! A12   A(2,3,38)             115.797          estimate D2E/DX2                !
 ! A13   A(5,3,10)             113.9651         estimate D2E/DX2                !
 ! A14   A(10,3,38)            120.1041         estimate D2E/DX2                !
 ! A15   A(1,4,5)              106.4269         estimate D2E/DX2                !
 ! A16   A(1,4,8)              110.5662         estimate D2E/DX2                !
 ! A17   A(1,4,9)              109.9796         estimate D2E/DX2                !
 ! A18   A(5,4,8)              109.8624         estimate D2E/DX2                !
 ! A19   A(5,4,9)              109.2297         estimate D2E/DX2                !
 ! A20   A(8,4,9)              110.678          estimate D2E/DX2                !
 ! A21   A(3,5,4)              107.2139         estimate D2E/DX2                !
 ! A22   A(3,5,23)             114.0212         estimate D2E/DX2                !
 ! A23   A(4,5,23)             121.6615         estimate D2E/DX2                !
 ! A24   A(4,5,38)             115.9459         estimate D2E/DX2                !
 ! A25   A(23,5,38)            119.8146         estimate D2E/DX2                !
 ! A26   A(25,12,28)           112.7312         estimate D2E/DX2                !
 ! A27   A(16,14,18)           120.5328         estimate D2E/DX2                !
 ! A28   A(16,14,34)           120.4867         estimate D2E/DX2                !
 ! A29   A(18,14,34)           118.9727         estimate D2E/DX2                !
 ! A30   A(16,15,22)           123.0777         estimate D2E/DX2                !
 ! A31   A(14,16,15)           120.4735         estimate D2E/DX2                !
 ! A32   A(14,16,17)           119.9345         estimate D2E/DX2                !
 ! A33   A(15,16,17)           119.5867         estimate D2E/DX2                !
 ! A34   A(16,17,20)           118.9352         estimate D2E/DX2                !
 ! A35   A(16,17,21)           118.9558         estimate D2E/DX2                !
 ! A36   A(20,17,21)           122.108          estimate D2E/DX2                !
 ! A37   A(14,18,19)           121.9382         estimate D2E/DX2                !
 ! A38   A(14,18,26)           118.3255         estimate D2E/DX2                !
 ! A39   A(19,18,26)           119.7305         estimate D2E/DX2                !
 ! A40   A(18,19,20)           119.0184         estimate D2E/DX2                !
 ! A41   A(18,19,25)           120.0672         estimate D2E/DX2                !
 ! A42   A(20,19,25)           120.9139         estimate D2E/DX2                !
 ! A43   A(11,20,17)           119.7815         estimate D2E/DX2                !
 ! A44   A(11,20,19)           120.5823         estimate D2E/DX2                !
 ! A45   A(17,20,19)           119.6362         estimate D2E/DX2                !
 ! A46   A(17,21,24)           120.2934         estimate D2E/DX2                !
 ! A47   A(17,21,27)           120.5732         estimate D2E/DX2                !
 ! A48   A(24,21,27)           119.1332         estimate D2E/DX2                !
 ! A49   A(1,22,15)            118.7237         estimate D2E/DX2                !
 ! A50   A(1,22,24)            122.5805         estimate D2E/DX2                !
 ! A51   A(15,22,24)           118.6956         estimate D2E/DX2                !
 ! A52   A(21,24,22)           119.3865         estimate D2E/DX2                !
 ! A53   A(21,24,37)           118.5179         estimate D2E/DX2                !
 ! A54   A(22,24,37)           122.0949         estimate D2E/DX2                !
 ! A55   A(12,25,13)           119.3176         estimate D2E/DX2                !
 ! A56   A(12,25,19)           120.3506         estimate D2E/DX2                !
 ! A57   A(13,25,19)           120.3318         estimate D2E/DX2                !
 ! A58   A(30,29,32)           119.9937         estimate D2E/DX2                !
 ! A59   A(30,29,35)           119.9865         estimate D2E/DX2                !
 ! A60   A(32,29,35)           120.0197         estimate D2E/DX2                !
 ! A61   A(29,30,31)           120.0709         estimate D2E/DX2                !
 ! A62   A(29,30,44)           120.0272         estimate D2E/DX2                !
 ! A63   A(31,30,44)           119.9017         estimate D2E/DX2                !
 ! A64   A(30,31,34)           120.3368         estimate D2E/DX2                !
 ! A65   A(30,31,36)           119.4118         estimate D2E/DX2                !
 ! A66   A(34,31,36)           120.2499         estimate D2E/DX2                !
 ! A67   A(29,32,33)           120.173          estimate D2E/DX2                !
 ! A68   A(29,32,43)           119.8964         estimate D2E/DX2                !
 ! A69   A(33,32,43)           119.9302         estimate D2E/DX2                !
 ! A70   A(32,33,34)           120.1312         estimate D2E/DX2                !
 ! A71   A(32,33,45)           119.3797         estimate D2E/DX2                !
 ! A72   A(34,33,45)           120.4789         estimate D2E/DX2                !
 ! A73   A(14,34,31)           120.1667         estimate D2E/DX2                !
 ! A74   A(14,34,33)           120.5392         estimate D2E/DX2                !
 ! A75   A(31,34,33)           119.294          estimate D2E/DX2                !
 ! A76   A(3,38,41)            114.7588         estimate D2E/DX2                !
 ! A77   A(3,38,42)            118.9237         estimate D2E/DX2                !
 ! A78   A(5,38,41)            113.7845         estimate D2E/DX2                !
 ! A79   A(5,38,42)            117.7532         estimate D2E/DX2                !
 ! A80   A(41,38,42)           118.3953         estimate D2E/DX2                !
 ! A81   A(38,41,39)           111.509          estimate D2E/DX2                !
 ! A82   A(38,41,40)           107.0645         estimate D2E/DX2                !
 ! A83   A(39,41,40)           106.7064         estimate D2E/DX2                !
 ! D1    D(4,1,2,3)              1.1738         estimate D2E/DX2                !
 ! D2    D(4,1,2,6)           -117.5675         estimate D2E/DX2                !
 ! D3    D(4,1,2,7)            120.9734         estimate D2E/DX2                !
 ! D4    D(22,1,2,3)          -179.3452         estimate D2E/DX2                !
 ! D5    D(22,1,2,6)            61.9135         estimate D2E/DX2                !
 ! D6    D(22,1,2,7)           -59.5456         estimate D2E/DX2                !
 ! D7    D(2,1,4,5)             -1.2695         estimate D2E/DX2                !
 ! D8    D(2,1,4,8)           -120.5412         estimate D2E/DX2                !
 ! D9    D(2,1,4,9)            116.9304         estimate D2E/DX2                !
 ! D10   D(22,1,4,5)           179.272          estimate D2E/DX2                !
 ! D11   D(22,1,4,8)            60.0003         estimate D2E/DX2                !
 ! D12   D(22,1,4,9)           -62.528          estimate D2E/DX2                !
 ! D13   D(2,1,22,15)            1.6085         estimate D2E/DX2                !
 ! D14   D(2,1,22,24)         -178.5633         estimate D2E/DX2                !
 ! D15   D(4,1,22,15)         -178.9797         estimate D2E/DX2                !
 ! D16   D(4,1,22,24)            0.8485         estimate D2E/DX2                !
 ! D17   D(1,2,3,5)             -0.5842         estimate D2E/DX2                !
 ! D18   D(1,2,3,10)          -134.1421         estimate D2E/DX2                !
 ! D19   D(1,2,3,38)            63.793          estimate D2E/DX2                !
 ! D20   D(6,2,3,5)            118.28           estimate D2E/DX2                !
 ! D21   D(6,2,3,10)           -15.2779         estimate D2E/DX2                !
 ! D22   D(6,2,3,38)          -177.3428         estimate D2E/DX2                !
 ! D23   D(7,2,3,5)           -120.4944         estimate D2E/DX2                !
 ! D24   D(7,2,3,10)           105.9477         estimate D2E/DX2                !
 ! D25   D(7,2,3,38)           -56.1172         estimate D2E/DX2                !
 ! D26   D(2,3,5,4)             -0.1544         estimate D2E/DX2                !
 ! D27   D(2,3,5,23)          -137.8599         estimate D2E/DX2                !
 ! D28   D(10,3,5,4)           137.355          estimate D2E/DX2                !
 ! D29   D(10,3,5,23)           -0.3504         estimate D2E/DX2                !
 ! D30   D(2,3,38,41)          160.0379         estimate D2E/DX2                !
 ! D31   D(2,3,38,42)           11.4807         estimate D2E/DX2                !
 ! D32   D(10,3,38,41)          -2.3134         estimate D2E/DX2                !
 ! D33   D(10,3,38,42)        -150.8707         estimate D2E/DX2                !
 ! D34   D(1,4,5,3)              0.8336         estimate D2E/DX2                !
 ! D35   D(1,4,5,23)           134.6019         estimate D2E/DX2                !
 ! D36   D(1,4,5,38)           -63.6536         estimate D2E/DX2                !
 ! D37   D(8,4,5,3)            120.5634         estimate D2E/DX2                !
 ! D38   D(8,4,5,23)          -105.6683         estimate D2E/DX2                !
 ! D39   D(8,4,5,38)            56.0762         estimate D2E/DX2                !
 ! D40   D(9,4,5,3)           -117.8593         estimate D2E/DX2                !
 ! D41   D(9,4,5,23)            15.909          estimate D2E/DX2                !
 ! D42   D(9,4,5,38)           177.6534         estimate D2E/DX2                !
 ! D43   D(4,5,38,41)         -158.3954         estimate D2E/DX2                !
 ! D44   D(4,5,38,42)          -13.3952         estimate D2E/DX2                !
 ! D45   D(23,5,38,41)           3.7075         estimate D2E/DX2                !
 ! D46   D(23,5,38,42)         148.7077         estimate D2E/DX2                !
 ! D47   D(28,12,25,13)          0.2131         estimate D2E/DX2                !
 ! D48   D(28,12,25,19)       -179.7853         estimate D2E/DX2                !
 ! D49   D(18,14,16,15)       -178.4502         estimate D2E/DX2                !
 ! D50   D(18,14,16,17)          0.7091         estimate D2E/DX2                !
 ! D51   D(34,14,16,15)          2.5697         estimate D2E/DX2                !
 ! D52   D(34,14,16,17)       -178.2711         estimate D2E/DX2                !
 ! D53   D(16,14,18,19)         -0.6339         estimate D2E/DX2                !
 ! D54   D(16,14,18,26)       -179.7525         estimate D2E/DX2                !
 ! D55   D(34,14,18,19)        178.3615         estimate D2E/DX2                !
 ! D56   D(34,14,18,26)         -0.757          estimate D2E/DX2                !
 ! D57   D(16,14,34,31)         57.1468         estimate D2E/DX2                !
 ! D58   D(16,14,34,33)       -122.9561         estimate D2E/DX2                !
 ! D59   D(18,14,34,31)       -121.8491         estimate D2E/DX2                !
 ! D60   D(18,14,34,33)         58.048          estimate D2E/DX2                !
 ! D61   D(22,15,16,14)        179.9501         estimate D2E/DX2                !
 ! D62   D(22,15,16,17)          0.7879         estimate D2E/DX2                !
 ! D63   D(16,15,22,1)         179.4518         estimate D2E/DX2                !
 ! D64   D(16,15,22,24)         -0.3831         estimate D2E/DX2                !
 ! D65   D(14,16,17,20)         -0.2118         estimate D2E/DX2                !
 ! D66   D(14,16,17,21)       -179.852          estimate D2E/DX2                !
 ! D67   D(15,16,17,20)        178.9549         estimate D2E/DX2                !
 ! D68   D(15,16,17,21)         -0.6852         estimate D2E/DX2                !
 ! D69   D(16,17,20,11)        179.6468         estimate D2E/DX2                !
 ! D70   D(16,17,20,19)         -0.3565         estimate D2E/DX2                !
 ! D71   D(21,17,20,11)         -0.7249         estimate D2E/DX2                !
 ! D72   D(21,17,20,19)        179.2718         estimate D2E/DX2                !
 ! D73   D(16,17,21,24)          0.2145         estimate D2E/DX2                !
 ! D74   D(16,17,21,27)       -179.9482         estimate D2E/DX2                !
 ! D75   D(20,17,21,24)       -179.4137         estimate D2E/DX2                !
 ! D76   D(20,17,21,27)          0.4236         estimate D2E/DX2                !
 ! D77   D(14,18,19,20)          0.0516         estimate D2E/DX2                !
 ! D78   D(14,18,19,25)       -179.6869         estimate D2E/DX2                !
 ! D79   D(26,18,19,20)        179.1581         estimate D2E/DX2                !
 ! D80   D(26,18,19,25)         -0.5804         estimate D2E/DX2                !
 ! D81   D(18,19,20,11)       -179.5614         estimate D2E/DX2                !
 ! D82   D(18,19,20,17)          0.442          estimate D2E/DX2                !
 ! D83   D(25,19,20,11)          0.1747         estimate D2E/DX2                !
 ! D84   D(25,19,20,17)       -179.8219         estimate D2E/DX2                !
 ! D85   D(18,19,25,12)       -179.361          estimate D2E/DX2                !
 ! D86   D(18,19,25,13)          0.6406         estimate D2E/DX2                !
 ! D87   D(20,19,25,12)          0.9055         estimate D2E/DX2                !
 ! D88   D(20,19,25,13)       -179.0928         estimate D2E/DX2                !
 ! D89   D(17,21,24,22)          0.1799         estimate D2E/DX2                !
 ! D90   D(17,21,24,37)        179.8837         estimate D2E/DX2                !
 ! D91   D(27,21,24,22)       -179.6598         estimate D2E/DX2                !
 ! D92   D(27,21,24,37)          0.044          estimate D2E/DX2                !
 ! D93   D(1,22,24,21)        -179.9367         estimate D2E/DX2                !
 ! D94   D(1,22,24,37)           0.3706         estimate D2E/DX2                !
 ! D95   D(15,22,24,21)         -0.1084         estimate D2E/DX2                !
 ! D96   D(15,22,24,37)       -179.8012         estimate D2E/DX2                !
 ! D97   D(32,29,30,31)          0.0936         estimate D2E/DX2                !
 ! D98   D(32,29,30,44)        179.908          estimate D2E/DX2                !
 ! D99   D(35,29,30,31)       -179.8616         estimate D2E/DX2                !
 ! D100  D(35,29,30,44)         -0.0471         estimate D2E/DX2                !
 ! D101  D(30,29,32,33)          0.0156         estimate D2E/DX2                !
 ! D102  D(30,29,32,43)        179.7736         estimate D2E/DX2                !
 ! D103  D(35,29,32,33)        179.9708         estimate D2E/DX2                !
 ! D104  D(35,29,32,43)         -0.2713         estimate D2E/DX2                !
 ! D105  D(29,30,31,34)         -0.2242         estimate D2E/DX2                !
 ! D106  D(29,30,31,36)        179.3299         estimate D2E/DX2                !
 ! D107  D(44,30,31,34)        179.9611         estimate D2E/DX2                !
 ! D108  D(44,30,31,36)         -0.4848         estimate D2E/DX2                !
 ! D109  D(30,31,34,14)       -179.8584         estimate D2E/DX2                !
 ! D110  D(30,31,34,33)          0.2432         estimate D2E/DX2                !
 ! D111  D(36,31,34,14)          0.5912         estimate D2E/DX2                !
 ! D112  D(36,31,34,33)       -179.3072         estimate D2E/DX2                !
 ! D113  D(29,32,33,34)          0.0052         estimate D2E/DX2                !
 ! D114  D(29,32,33,45)        178.8513         estimate D2E/DX2                !
 ! D115  D(43,32,33,34)       -179.7526         estimate D2E/DX2                !
 ! D116  D(43,32,33,45)         -0.9066         estimate D2E/DX2                !
 ! D117  D(32,33,34,14)        179.9683         estimate D2E/DX2                !
 ! D118  D(32,33,34,31)         -0.1337         estimate D2E/DX2                !
 ! D119  D(45,33,34,14)          1.1351         estimate D2E/DX2                !
 ! D120  D(45,33,34,31)       -178.9669         estimate D2E/DX2                !
 ! D121  D(3,38,41,39)          27.4192         estimate D2E/DX2                !
 ! D122  D(3,38,41,40)         -88.952          estimate D2E/DX2                !
 ! D123  D(5,38,41,39)         -39.0882         estimate D2E/DX2                !
 ! D124  D(5,38,41,40)        -155.4595         estimate D2E/DX2                !
 ! D125  D(42,38,41,39)        176.1525         estimate D2E/DX2                !
 ! D126  D(42,38,41,40)         59.7812         estimate D2E/DX2                !
 --------------------------------------------------------------------------------
 Trust Radius=3.00D-01 FncErr=1.00D-07 GrdErr=1.00D-06
 Number of steps in this run=    268 maximum allowed number of steps=    270.
 GradGradGradGradGradGradGradGradGradGradGradGradGradGradGradGradGradGrad

                          Input orientation:                          
 ---------------------------------------------------------------------
 Center     Atomic      Atomic             Coordinates (Angstroms)
 Number     Number       Type             X           Y           Z
 ---------------------------------------------------------------------
      1          7           0        7.249550    5.595640    8.940900
      2          6           0        7.601450    6.285650   10.173700
      3          6           0        7.324830    5.311690   11.308400
      4          6           0        6.736960    4.252890    9.175990
      5          6           0        6.783280    4.031940   10.680900
      6          1           0        6.968070    7.190280   10.294200
      7          1           0        8.675110    6.573170   10.165400
      8          1           0        7.371120    3.497780    8.663860
      9          1           0        5.684550    4.182120    8.828090
     10          1           0        6.785920    5.626720   12.227800
     11          8           0        7.634270    7.771780    2.885960
     12          8           0        8.340620    9.901940    1.500760
     13          8           0        9.167470   11.572200    2.779420
     14          7           0        8.653670    9.482210    6.415910
     15          7           0        7.914680    7.480510    7.586420
     16          6           0        8.104100    8.149000    6.415980
     17          6           0        7.745530    7.541650    5.207790
     18          6           0        8.823960   10.204500    5.179160
     19          6           0        8.493390    9.666960    3.988200
     20          6           0        7.935590    8.288880    3.948570
     21          6           0        7.210280    6.246280    5.231980
     22          6           0        7.399160    6.221480    7.648290
     23          1           0        5.927420    3.584990   11.231600
     24          6           0        7.035570    5.578640    6.446450
     25          6           0        8.693250   10.447700    2.736000
     26          1           0        9.244280   11.203000    5.220280
     27          1           0        6.924590    5.751050    4.312220
     28          1           0        8.528620   10.529600    0.727144
     29          6           0        9.862120   11.307700   10.054900
     30          6           0       10.412800   10.082700    9.669160
     31          6           0       10.016800    9.483330    8.470220
     32          6           0        8.912740   11.933900    9.242270
     33          6           0        8.511090   11.337300    8.042310
     34          6           0        9.061000   10.104100    7.648170
     35          9           0       10.249600   11.889000   11.217000
     36          1           0       10.458500    8.539240    8.176320
     37          9           0        6.512700    4.328070    6.428150
     38          6           0        8.169960    4.041760   11.314100
     39          1           0        7.380000    3.537880   13.180600
     40          1           0        9.042610    3.759940   13.128300
     41          7           0        8.234490    3.354120   12.604700
     42          1           0        9.049300    3.977800   10.636200
     43          1           0        8.484440   12.881100    9.544420
     44          1           0       11.149000    9.598110   10.297200
     45          9           0        7.571210   11.947700    7.277330
 ---------------------------------------------------------------------
                    Distance matrix (angstroms):
                    1          2          3          4          5
     1  N    0.000000
     2  C    1.455934   0.000000
     3  C    2.385655   1.520744   0.000000
     4  C    1.456363   2.423815   2.452309   0.000000
     5  C    2.385407   2.450686   1.524727   1.521749   0.000000
     6  H    2.110339   1.110876   2.164481   3.151518   3.187287
     7  H    2.118298   1.111523   2.172795   3.181047   3.209768
     8  H    2.119563   3.178819   3.207180   1.111138   2.167795
     9  H    2.111869   3.148017   3.180941   1.110680   2.159321
    10  H    3.319583   2.306210   1.111289   3.347141   2.221763
    11  O    6.445610   7.437796   8.779823   7.263073   8.687444
    12  O    8.665468   9.425700  10.876214   9.663987  11.007142
    13  O    8.795540   9.223633  10.739311  10.019770  11.179144
    14  N    4.842784   5.044418   6.564717   6.215916   7.168957
    15  N    2.414487   2.867023   4.347969   3.785669   4.769540
    16  C    3.691223   4.224357   5.709060   4.966528   6.073244
    17  C    4.238993   5.124310   6.509005   5.251644   6.572589
    18  C    6.153945   6.465087   7.984645   7.466718   8.516690
    19  C    6.530852   7.105577   8.597630   7.701322   8.914604
    20  C    5.713804   6.548040   7.962649   6.712067   8.048206
    21  C    3.765762   4.957334   6.148940   4.444418   5.897148
    22  C    1.443918   2.534311   3.772221   2.578318   3.790794
    23  H    3.322356   3.348894   2.222644   2.308025   1.111544
    24  C    2.503669   3.835685   4.877857   3.049126   4.515141
    25  C    8.007967   8.592675  10.086487   9.147470  10.389004
    26  H    7.018864   7.170467   8.686600   8.380831   9.343393
    27  H    4.642675   5.924600   7.021379   5.092735   6.598136
    28  H    9.666735  10.397508  11.859118  10.676616  12.014285
    29  C    6.379196   5.508696   6.630327   7.765916   7.925138
    30  C    5.538070   4.751404   5.914829   6.909537   7.128024
    31  C    4.795138   4.354414   5.718789   6.213933   6.712705
    32  C    6.559769   5.872799   7.116461   7.983503   8.309346
    33  C    5.946899   5.557827   6.955755   7.390645   7.957121
    34  C    5.027794   4.805117   6.275250   6.478584   7.159371
    35  F    7.333983   6.284799   7.198864   8.649540   8.604427
    36  H    4.421168   4.151015   5.481505   5.763853   6.332134
    37  F    2.909226   4.364246   5.044195   2.758001   4.271626
    38  C    2.982243   2.580457   1.525451   2.582553   1.524441
    39  H    4.714494   4.079305   2.579647   4.118451   2.616996
    40  H    4.911128   4.145578   2.944611   4.602149   3.341904
    41  N    4.406580   3.860618   2.517927   3.847913   2.503289
    42  H    2.954750   2.763394   2.281428   2.748600   2.267107
    43  H    7.413981   6.683983   7.858262   8.811097   9.082575
    44  H    5.750220   4.855178   5.832684   7.021010   7.084418
    45  F    6.574161   6.359928   7.768324   7.969378   8.652420
                    6          7          8          9         10
     6  H    0.000000
     7  H    1.819725   0.000000
     8  H    4.056478   3.662381   0.000000
     9  H    3.584122   4.055733   1.827515   0.000000
    10  H    2.493333   2.952677   4.192435   3.854596   0.000000
    11  O    7.460830   7.450521   7.191693   7.210824   9.622419
    12  O    9.303848   9.288088   9.657287   9.667513  11.651780
    13  O    8.972764   8.932268  10.151343  10.165157  11.414570
    14  N    4.809919   4.745698   6.520093   6.536455   7.220205
    15  N    2.883119   2.837720   4.161547   4.170683   5.123773
    16  C    4.153348   4.106999   5.217669   5.235326   6.471225
    17  C    5.157468   5.136143   5.332681   5.351696   7.339506
    18  C    6.220409   6.170195   7.696361   7.709711   8.648295
    19  C    6.944507   6.911032   7.821769   7.835661   9.334345
    20  C    6.512299   6.491496   6.745904   6.763311   8.772371
    21  C    5.155179   5.156667   4.399764   4.418214   7.036010
    22  C    2.850483   2.843867   2.907011   2.913899   4.658510
    23  H    3.867788   4.197118   2.947060   2.488455   2.428600
    24  C    4.172184   4.184229   3.059327   3.073716   5.786937
    25  C    8.409127   8.379039   9.229785   9.242474  10.815453
    26  H    6.857676   6.798051   8.645079   8.659141   9.286752
    27  H    6.152833   6.164407   4.920710   4.938858   7.917771
    28  H   10.252557  10.235012  10.666666  10.677292  12.623008
    29  C    5.038446   4.882313   8.314741   8.350512   6.816013
    30  C    4.541248   3.947483   7.322815   7.607929   6.289408
    31  C    4.228444   3.625300   6.547055   6.855603   6.279445
    32  C    5.233568   5.444820   8.595305   8.407309   7.295017
    33  C    4.964846   5.218366   7.946315   7.733264   7.287336
    34  C    4.457822   4.353484   6.894257   6.918271   6.796759
    35  F    5.804995   5.642954   9.231292   9.270522   7.227375
    36  H    4.299792   3.316979   5.931773   6.496145   6.195572
    37  F    4.831765   4.866573   2.534692   2.542999   5.949545
    38  C    3.521067   2.825372   2.820963   3.518126   2.294017
    39  H    4.673437   4.470092   4.516927   4.715288   2.371500
    40  H    4.909488   4.102206   4.774289   5.472349   3.064052
    41  N    4.653854   4.062833   4.036863   4.631475   2.721235
    42  H    3.842982   2.664135   2.633787   3.825252   3.221027
    43  H    5.936917   6.341289   9.490077   9.166502   7.919061
    44  H    4.824710   3.909957   7.358954   7.832716   6.207707
    45  F    5.665539   6.200413   8.565258   8.140551   8.067132
                   11         12         13         14         15
    11  O    0.000000
    12  O    2.637289   0.000000
    13  O    4.099420   2.260182   0.000000
    14  N    4.052813   4.942962   4.225649   0.000000
    15  N    4.717816   6.563536   6.435733   2.433722   0.000000
    16  C    3.581072   5.223804   5.106234   1.442039   1.361135
    17  C    2.335858   4.434769   4.915712   2.459684   2.385420
    18  C    3.548557   3.722336   2.783407   1.442308   3.747241
    19  C    2.354724   2.503180   2.354883   2.440000   4.250018
    20  C    1.219560   2.959356   3.696570   2.833274   3.726641
    21  C    2.830323   5.344485   6.181510   3.735814   2.750071
    22  C    5.013830   7.226635   7.447350   3.704715   1.361890
    23  H    9.491694  11.849753  12.071984   8.087058   5.693120
    24  C    4.224381   6.697308   7.342674   4.225759   2.385262
    25  C    2.881749   1.395715   1.221176   3.804665   5.739073
    26  H    4.451343   4.042795   2.469819   2.177032   4.606885
    27  H    2.573172   5.209543   6.423844   4.619176   3.832975
    28  H    3.614681   1.013796   2.388929   5.785734   7.531503
    29  C    8.298177   8.801388   7.313351   4.246765   4.953110
    30  C    7.685856   8.429078   7.158071   3.746834   4.165309
    31  C    6.307917   7.180403   6.121270   2.465424   3.035012
    32  C    7.704570   8.024161   6.477974   3.750495   4.854961
    33  C    6.330063   6.699343   5.308863   2.471207   3.929169
    34  C    5.491258   6.192775   5.086392   1.439142   2.863754
    35  F    9.653895  10.099403   8.512586   5.602686   6.169907
    36  H    6.045922   7.134807   6.323933   2.691774   2.817785
    37  F    5.065981   7.660841   8.534545   5.581134   3.639370
    38  C    9.232202  11.431206  11.425555   7.336534   5.077969
    39  H   11.134189  13.335768  13.263857   9.094962   6.864770
    40  H   11.089807  13.168775  12.967124   8.829033   6.769586
    41  N   10.692516  12.891187  12.843030   8.719537   6.504806
    42  H    8.744302  10.911184  10.927848   6.947366   4.780952
    43  H    8.435818   8.578843   6.924231   4.622626   5.772760
    44  H    8.403290   9.238867   8.021254   4.615682   4.721587
    45  F    6.060232   6.176236   4.787509   2.827084   4.491024
                   16         17         18         19         20
    16  C    0.000000
    17  C    1.398989   0.000000
    18  C    2.504596   2.873082   0.000000
    19  C    2.889613   2.561960   1.347817   0.000000
    20  C    2.477110   1.476520   2.444003   1.487217   0.000000
    21  C    2.412698   1.401806   4.274840   3.859328   2.519014
    22  C    2.393922   2.796223   4.898072   5.144408   4.271982
    23  H    6.982716   7.432831   9.425491   9.800072   8.899542
    24  C    2.783781   2.427289   5.118881   4.988245   3.794053
    25  C    4.378741   3.931036   2.458711   1.489129   2.589378
    26  H    3.472265   3.956247   1.084141   2.107433   3.438315
    27  H    3.401061   2.163848   4.918578   4.230895   2.755892
    28  H    6.181450   5.442175   4.473630   3.373407   3.968639
    29  C    5.129304   6.492885   5.105650   6.431975   7.078987
    30  C    4.433111   5.785766   4.764383   6.010847   6.486872
    31  C    3.107855   4.424052   3.574077   4.737404   5.118932
    32  C    4.792419   6.077110   4.416737   5.737606   6.501096
    33  C    3.602200   4.798702   3.094956   4.384764   5.136416
    34  C    2.501273   3.775191   2.482394   3.729431   4.271839
    35  F    6.452950   7.828181   6.428491   7.763845   8.434784
    36  H    2.965516   4.143376   3.798392   4.761697   4.929668
    37  F    4.139107   3.651882   6.436950   6.195178   4.884767
    38  C    6.392600   7.050985   8.720354   9.242094   8.505527
    39  H    8.218688   8.929137  10.514366  11.104300  10.397647
    40  H    8.074645   8.872329  10.235672  10.896603  10.295836
    41  N    7.829951   8.514034  10.119972  10.684711   9.968439
    42  H    6.008541   6.623328   8.282624   8.767638   8.034311
    43  H    5.685470   6.918242   5.131760   6.418906   7.259701
    44  H    5.141518   6.458694   5.654012   6.845472   7.234998
    45  F    3.931414   4.871002   3.001741   4.107380   4.959877
                   21         22         23         24         25
    21  C    0.000000
    22  C    2.423808   0.000000
    23  H    6.687573   4.685852   0.000000
    24  C    1.396855   1.410624   5.300971   0.000000
    25  C    5.106961   6.608040  11.265959   6.342167   0.000000
    26  H    5.357832   5.840825  10.255321   6.165656   2.654385
    27  H    1.082973   3.402335   7.318742   2.144057   5.260337
    28  H    6.354400   8.230300  12.858361   7.710491   2.017254
    29  C    7.477351   6.142278   8.746813   7.337058   7.461378
    30  C    6.683025   5.298581   8.048608   6.486763   7.152537
    31  C    5.370405   4.262308   7.690167   5.313189   5.963478
    32  C    7.164483   6.120738   9.087016   7.192337   6.677463
    33  C    5.958905   5.250072   8.771843   6.155168   5.383447
    34  C    4.913849   4.223322   8.072118   5.101596   4.937886
    35  F    8.769163   7.278838   9.361519   8.538664   8.742250
    36  H    4.947498   3.874324   7.376314   4.845003   6.029545
    37  F    2.365792   2.420652   4.895697   1.355601   7.472392
    38  C    6.540113   4.333991   2.290072   5.229040  10.718848
    39  H    8.399095   6.148864   2.431216   7.045006  12.592057
    40  H    8.478867   6.228211   3.651368   7.209924  12.363175
    41  N    7.985649   5.786668   2.694676   6.656571  12.162260
    42  H    6.142767   4.084687   3.202333   4.916483  10.217609
    43  H    8.015077   7.008829   9.787880   8.063657   7.233230
    44  H    7.239111   5.699092   8.018455   6.921324   7.995265
    45  F    6.067942   5.740802   9.395383   6.445324   4.912500
                   26         27         28         29         30
    26  H    0.000000
    27  H    5.994105   0.000000
    28  H    4.599338   6.185485   0.000000
    29  C    4.875063   8.513743   9.454665   0.000000
    30  C    4.734242   7.721891   9.149290   1.397379   0.000000
    31  C    3.757148   6.385972   7.953904   2.421459   1.397683
    32  C    4.101285   8.153881   8.638691   1.397790   2.420611
    33  C    2.918811   6.901938   7.359643   2.424186   2.799493
    34  C    2.671296   5.885733   6.954501   2.807632   2.431506
    35  F    6.118980   9.818661  10.716661   1.355923   2.384358
    36  H    4.160303   5.932436   7.948345   3.398397   2.147773
    37  F    7.495675   2.582961   8.661661   8.549103   7.670117
    38  C    9.464257   7.314297  12.421930   7.565902   6.650497
    39  H   11.206975   9.151704  14.328016   8.735046   8.022640
    40  H   10.861703   9.282984  14.137933   8.190608   7.336236
    41  N   10.823782   8.730769  13.879855   8.509412   7.657429
    42  H    9.031817   6.903009  11.890609   7.397704   6.329621
    43  H    4.700166   8.980349   9.125561   2.152714   3.400761
    44  H    5.654975   8.274388   9.965944   2.153478   1.082244
    45  F    2.754123   6.899889   6.769976   3.656879   4.156165
                   31         32         33         34         35
    31  C    0.000000
    32  C    2.796480   0.000000
    33  C    2.426412   1.398985   0.000000
    34  C    1.405231   2.431317   1.406602   0.000000
    35  F    3.658722   2.385114   3.661345   4.163554   0.000000
    36  H    1.082951   3.879348   3.411672   2.163501   4.528826
    37  F    6.559380   8.457429   7.465144   6.429993   9.698720
    38  C    6.411642   8.193295   8.002867   7.140375   8.118713
    39  H    8.030490   9.399622   9.408100   8.749216   9.046078
    40  H    7.443383   9.051614   9.141455   8.383348   8.437506
    41  N    7.605115   9.240053   9.199080   8.415019   8.878657
    42  H    5.994863   8.078441   7.821776   6.816158   8.022788
    43  H    3.879030   1.082554   2.154150   3.411732   2.626324
    44  H    2.152419   3.401419   3.881737   3.410737   2.627381
    45  F    3.671106   2.379261   1.356892   2.399137   4.764265
                   36         37         38         39         40
    36  H    0.000000
    37  F    6.029875   0.000000
    38  C    5.942256   5.167300   0.000000
    39  H    7.715801   6.853626   2.088481   0.000000
    40  H    7.026276   7.184374   2.032797   1.678189   0.000000
    41  N    7.172325   6.485592   1.463783   1.046700   1.044942
    42  H    5.370623   4.925923   1.112150   3.074746   2.501614
    43  H    4.961891   9.314141   9.020233  10.086494   9.815870
    44  H    2.469034   8.014870   6.386062   7.697126   6.821747
    45  F    4.556559   7.739529   8.897073  10.276684  10.170461
                   41         42         43         44         45
    41  N    0.000000
    42  H    2.219884   0.000000
    43  H   10.009552   8.987758   0.000000
    44  H    7.266797   6.009288   4.294715   0.000000
    45  F   10.132642   8.774170   2.616280   5.238394   0.000000
 Stoichiometry    C20H15F3N4O3
 Framework group  C1[X(C20H15F3N4O3)]
 Deg. of freedom   129
 Full point group                 C1      NOp   1
 Largest Abelian subgroup         C1      NOp   1
 Largest concise Abelian subgroup C1      NOp   1
                         Standard orientation:                         
 ---------------------------------------------------------------------
 Center     Atomic      Atomic             Coordinates (Angstroms)
 Number     Number       Type             X           Y           Z
 ---------------------------------------------------------------------
      1          7           0        2.890626   -1.045850    0.306664
      2          6           0        3.333823    0.340227    0.352590
      3          6           0        4.850923    0.305980    0.452068
      4          6           0        3.994781   -1.991333    0.395536
      5          6           0        5.267199   -1.160615    0.476647
      6          1           0        2.911240    0.842360    1.248878
      7          1           0        3.019751    0.879461   -0.567230
      8          1           0        4.025244   -2.641638   -0.504909
      9          1           0        3.897627   -2.602670    1.317728
     10          1           0        5.401470    0.943667    1.176787
     11          8           0       -3.126456   -3.311114   -0.150721
     12          8           0       -5.629234   -2.497443   -0.321983
     13          8           0       -5.839548   -0.248696   -0.407568
     14          7           0       -1.687102    0.477317   -0.113957
     15          7           0        0.574387   -0.395929    0.100776
     16          6           0       -0.762133   -0.624788   -0.017657
     17          6           0       -1.239497   -1.939772   -0.028070
     18          6           0       -3.106259    0.236955   -0.206003
     19          6           0       -3.618975   -1.009471   -0.218503
     20          6           0       -2.693975   -2.170939   -0.133741
     21          6           0       -0.322448   -2.995471    0.069813
     22          6           0        1.494098   -1.395792    0.196434
     23          1           0        6.068690   -1.391223    1.211468
     24          6           0        1.045053   -2.732939    0.180370
     25          6           0       -5.090952   -1.209704   -0.321914
     26          1           0       -3.768955    1.091689   -0.281010
     27          1           0       -0.663140   -4.023439    0.063480
     28          1           0       -6.639967   -2.499532   -0.400714
     29          6           0       -0.261419    4.476595   -0.204568
     30          6           0        0.177828    3.554651   -1.158376
     31          6           0       -0.293479    2.239137   -1.129888
     32          6           0       -1.171606    4.082922    0.780519
     33          6           0       -1.644833    2.766859    0.815061
     34          6           0       -1.206527    1.833564   -0.141693
     35          9           0        0.194768    5.753100   -0.235501
     36          1           0        0.045632    1.536345   -1.880800
     37          9           0        1.899675   -3.780923    0.275254
     38          6           0        5.580989   -0.300444   -0.742190
     39          1           0        7.403967    0.298031    0.082633
     40          1           0        7.032264    0.952713   -1.417215
     41          7           0        6.991694    0.074103   -0.853032
     42          1           0        5.011479   -0.498910   -1.676613
     43          1           0       -1.508029    4.797491    1.520880
     44          1           0        0.881393    3.859256   -1.922224
     45          9           0       -2.509947    2.395957    1.792388
 ---------------------------------------------------------------------
 Rotational constants (GHZ):      0.1826375      0.1044751      0.0695222
 Standard basis: 3-21G (6D, 7F)
 There are   300 symmetry adapted cartesian basis functions of A   symmetry.
 There are   300 symmetry adapted basis functions of A   symmetry.
   300 basis functions,   495 primitive gaussians,   300 cartesian basis functions
   107 alpha electrons      107 beta electrons
       nuclear repulsion energy      2838.9882868170 Hartrees.
 NAtoms=   45 NActive=   45 NUniq=   45 SFac= 1.00D+00 NAtFMM=   60 NAOKFM=F Big=F
 Integral buffers will be    131072 words long.
 Raffenetti 2 integral format.
 Two-electron integral symmetry is turned on.
 One-electron integrals computed using PRISM.
 PrsmSu:  requested number of processors reduced to:   9 ShMem   1 Linda.
 NBasis=   300 RedAO= T EigKep=  1.81D-03  NBF=   300
 NBsUse=   300 1.00D-06 EigRej= -1.00D+00 NBFU=   300
 ExpMin= 1.83D-01 ExpMax= 4.14D+02 ExpMxC= 4.14D+02 IAcc=1 IRadAn=         1 AccDes= 0.00D+00
 Harris functional with IExCor=  402 and IRadAn=       1 diagonalized for initial guess.
 HarFok:  IExCor=  402 AccDes= 0.00D+00 IRadAn=         1 IDoV= 1 UseB2=F ITyADJ=14
 ICtDFT=  3500011 ScaDFX=  1.000000  1.000000  1.000000  1.000000
 FoFCou: FMM=F IPFlag=           0 FMFlag=      100000 FMFlg1=           0
         NFxFlg=           0 DoJE=T BraDBF=F KetDBF=T FulRan=T
         wScrn=  0.000000 ICntrl=     500 IOpCl=  0 I1Cent=   200000004 NGrid=           0
         NMat0=    1 NMatS0=      1 NMatT0=    0 NMatD0=    1 NMtDS0=    0 NMtDT0=    0
 Petite list used in FoFCou.
 Requested convergence on RMS density matrix=1.00D-08 within 128 cycles.
 Requested convergence on MAX density matrix=1.00D-06.
 Requested convergence on             energy=1.00D-06.
 No special actions if energy rises.
 Integral accuracy reduced to 1.0D-05 until final iterations.
 EnCoef did     2 forward-backward iterations
 Initial convergence to 1.0D-05 achieved.  Increase integral accuracy.
 SCF Done:  E(RB3LYP) =  -1506.97498646     A.U. after   17 cycles
            NFock= 17  Conv=0.87D-08     -V/T= 2.0086

 **********************************************************************

            Population analysis using the SCF density.

 **********************************************************************

 Orbital symmetries:
       Occupied  (A) (A) (A) (A) (A) (A) (A) (A) (A) (A) (A) (A)
                 (A) (A) (A) (A) (A) (A) (A) (A) (A) (A) (A) (A)
                 (A) (A) (A) (A) (A) (A) (A) (A) (A) (A) (A) (A)
                 (A) (A) (A) (A) (A) (A) (A) (A) (A) (A) (A) (A)
                 (A) (A) (A) (A) (A) (A) (A) (A) (A) (A) (A) (A)
                 (A) (A) (A) (A) (A) (A) (A) (A) (A) (A) (A) (A)
                 (A) (A) (A) (A) (A) (A) (A) (A) (A) (A) (A) (A)
                 (A) (A) (A) (A) (A) (A) (A) (A) (A) (A) (A) (A)
                 (A) (A) (A) (A) (A) (A) (A) (A) (A) (A) (A)
       Virtual   (A) (A) (A) (A) (A) (A) (A) (A) (A) (A) (A) (A)
                 (A) (A) (A) (A) (A) (A) (A) (A) (A) (A) (A) (A)
                 (A) (A) (A) (A) (A) (A) (A) (A) (A) (A) (A) (A)
                 (A) (A) (A) (A) (A) (A) (A) (A) (A) (A) (A) (A)
                 (A) (A) (A) (A) (A) (A) (A) (A) (A) (A) (A) (A)
                 (A) (A) (A) (A) (A) (A) (A) (A) (A) (A) (A) (A)
                 (A) (A) (A) (A) (A) (A) (A) (A) (A) (A) (A) (A)
                 (A) (A) (A) (A) (A) (A) (A) (A) (A) (A) (A) (A)
                 (A) (A) (A) (A) (A) (A) (A) (A) (A) (A) (A) (A)
                 (A) (A) (A) (A) (A) (A) (A) (A) (A) (A) (A) (A)
                 (A) (A) (A) (A) (A) (A) (A) (A) (A) (A) (A) (A)
                 (A) (A) (A) (A) (A) (A) (A) (A) (A) (A) (A) (A)
                 (A) (A) (A) (A) (A) (A) (A) (A) (A) (A) (A) (A)
                 (A) (A) (A) (A) (A) (A) (A) (A) (A) (A) (A) (A)
                 (A) (A) (A) (A) (A) (A) (A) (A) (A) (A) (A) (A)
                 (A) (A) (A) (A) (A) (A) (A) (A) (A) (A) (A) (A)
                 (A)
 The electronic state is 1-A.
 Alpha  occ. eigenvalues --  -24.60031 -24.59304 -24.59084 -19.06393 -19.01762
 Alpha  occ. eigenvalues --  -19.00407 -14.34872 -14.29402 -14.27069 -14.24253
 Alpha  occ. eigenvalues --  -10.25937 -10.24861 -10.24332 -10.23939 -10.23741
 Alpha  occ. eigenvalues --  -10.23164 -10.20952 -10.20654 -10.20503 -10.17734
 Alpha  occ. eigenvalues --  -10.17337 -10.16925 -10.16874 -10.16372 -10.16122
 Alpha  occ. eigenvalues --  -10.15922 -10.15369 -10.15336 -10.14833 -10.14420
 Alpha  occ. eigenvalues --   -1.24016  -1.23433  -1.23180  -1.08838  -1.04110
 Alpha  occ. eigenvalues --   -1.01211  -1.00002  -0.98301  -0.95018  -0.91157
 Alpha  occ. eigenvalues --   -0.89503  -0.83833  -0.83429  -0.81421  -0.79354
 Alpha  occ. eigenvalues --   -0.78645  -0.76208  -0.75025  -0.70392  -0.68727
 Alpha  occ. eigenvalues --   -0.66537  -0.65705  -0.64187  -0.62461  -0.61229
 Alpha  occ. eigenvalues --   -0.60049  -0.58793  -0.57447  -0.57030  -0.55725
 Alpha  occ. eigenvalues --   -0.55315  -0.54561  -0.53078  -0.52697  -0.51425
 Alpha  occ. eigenvalues --   -0.50321  -0.49803  -0.48881  -0.48810  -0.47975
 Alpha  occ. eigenvalues --   -0.47872  -0.47071  -0.46262  -0.45584  -0.45521
 Alpha  occ. eigenvalues --   -0.45306  -0.44766  -0.44276  -0.43926  -0.43324
 Alpha  occ. eigenvalues --   -0.43141  -0.42822  -0.42244  -0.42139  -0.40514
 Alpha  occ. eigenvalues --   -0.39160  -0.38787  -0.38632  -0.38237  -0.38050
 Alpha  occ. eigenvalues --   -0.37682  -0.37209  -0.35954  -0.35809  -0.33167
 Alpha  occ. eigenvalues --   -0.31200  -0.29454  -0.29147  -0.28660  -0.28160
 Alpha  occ. eigenvalues --   -0.27222  -0.26950  -0.25855  -0.23252  -0.22708
 Alpha  occ. eigenvalues --   -0.21377  -0.20837
 Alpha virt. eigenvalues --   -0.05762  -0.03913  -0.03294  -0.02440  -0.00082
 Alpha virt. eigenvalues --    0.03798   0.06202   0.07769   0.08539   0.09360
 Alpha virt. eigenvalues --    0.10038   0.10546   0.11465   0.11545   0.12004
 Alpha virt. eigenvalues --    0.12806   0.13338   0.13888   0.14984   0.15855
 Alpha virt. eigenvalues --    0.16154   0.16515   0.17324   0.17565   0.17963
 Alpha virt. eigenvalues --    0.18517   0.19255   0.19415   0.19819   0.19950
 Alpha virt. eigenvalues --    0.20632   0.21541   0.22790   0.23330   0.25096
 Alpha virt. eigenvalues --    0.26448   0.27109   0.28309   0.29507   0.30079
 Alpha virt. eigenvalues --    0.31376   0.31762   0.32684   0.33429   0.35124
 Alpha virt. eigenvalues --    0.36171   0.36941   0.37365   0.38478   0.40643
 Alpha virt. eigenvalues --    0.41132   0.43609   0.48501   0.52981   0.54399
 Alpha virt. eigenvalues --    0.55334   0.57363   0.57773   0.63246   0.64688
 Alpha virt. eigenvalues --    0.65138   0.65380   0.66388   0.67249   0.67805
 Alpha virt. eigenvalues --    0.68271   0.68711   0.70108   0.70422   0.71254
 Alpha virt. eigenvalues --    0.71555   0.71977   0.72504   0.72973   0.73280
 Alpha virt. eigenvalues --    0.73656   0.74255   0.74537   0.75139   0.75616
 Alpha virt. eigenvalues --    0.76080   0.76631   0.77147   0.77330   0.77948
 Alpha virt. eigenvalues --    0.78887   0.79248   0.79754   0.80047   0.80390
 Alpha virt. eigenvalues --    0.81252   0.81683   0.82649   0.83856   0.87452
 Alpha virt. eigenvalues --    0.88070   0.89268   0.89858   0.91797   0.95544
 Alpha virt. eigenvalues --    0.96317   0.97162   0.98005   0.98285   0.99033
 Alpha virt. eigenvalues --    1.00505   1.01166   1.02288   1.03338   1.03369
 Alpha virt. eigenvalues --    1.03809   1.05047   1.05565   1.06837   1.07626
 Alpha virt. eigenvalues --    1.07708   1.08343   1.09842   1.11006   1.12028
 Alpha virt. eigenvalues --    1.14717   1.17682   1.18824   1.19518   1.20488
 Alpha virt. eigenvalues --    1.22254   1.23381   1.26051   1.26490   1.27979
 Alpha virt. eigenvalues --    1.29885   1.32929   1.34440   1.36643   1.37682
 Alpha virt. eigenvalues --    1.38973   1.39800   1.40992   1.41721   1.43345
 Alpha virt. eigenvalues --    1.44677   1.44870   1.46537   1.48695   1.51158
 Alpha virt. eigenvalues --    1.51857   1.52994   1.56209   1.56852   1.57522
 Alpha virt. eigenvalues --    1.58061   1.60524   1.61500   1.65141   1.65466
 Alpha virt. eigenvalues --    1.67283   1.70176   1.72454   1.74674   1.79298
 Alpha virt. eigenvalues --    1.81032   1.83701   1.84112   1.87406   1.88305
 Alpha virt. eigenvalues --    1.89687   1.90695   1.91138   1.91370   1.94297
 Alpha virt. eigenvalues --    1.99565   2.00171   2.02251   2.02794   2.03734
 Alpha virt. eigenvalues --    2.13494   2.15743   2.16674   2.19740   2.22254
 Alpha virt. eigenvalues --    2.30197   2.34395   2.41038   2.66002   2.81429
 Alpha virt. eigenvalues --    2.93177   3.11361   3.15250   3.39643   3.53487
 Alpha virt. eigenvalues --    3.88447   4.01491   4.04239
          Condensed to atoms (all electrons):
               1          2          3          4          5          6
     1  N    7.292786   0.242963  -0.055542   0.248492  -0.059453  -0.042658
     2  C    0.242963   5.190746   0.187860  -0.084211  -0.055042   0.356724
     3  C   -0.055542   0.187860   5.955804  -0.055671   0.003032  -0.036587
     4  C    0.248492  -0.084211  -0.055671   5.180696   0.227157   0.003407
     5  C   -0.059453  -0.055042   0.003032   0.227157   5.797519  -0.000024
     6  H   -0.042658   0.356724  -0.036587   0.003407  -0.000024   0.546032
     7  H   -0.048604   0.369741  -0.050774   0.002985   0.007037  -0.038424
     8  H   -0.047182   0.003088   0.006669   0.367457  -0.045473  -0.000229
     9  H   -0.042963   0.003487   0.000030   0.359741  -0.039210   0.000319
    10  H    0.001512  -0.022106   0.395368   0.002906  -0.027382  -0.002803
    11  O    0.000000   0.000000   0.000000   0.000000   0.000000   0.000000
    12  O    0.000000   0.000000   0.000000   0.000000   0.000000   0.000000
    13  O    0.000000   0.000000   0.000000   0.000000   0.000000   0.000000
    14  N    0.000001  -0.000009   0.000000   0.000000   0.000000  -0.000003
    15  N   -0.052539   0.006453   0.000309   0.000996  -0.000043   0.002796
    16  C    0.002366   0.000070  -0.000001  -0.000053   0.000001  -0.000030
    17  C   -0.000344   0.000032   0.000000  -0.000015   0.000000  -0.000001
    18  C    0.000000   0.000000   0.000000   0.000000   0.000000   0.000000
    19  C    0.000000   0.000000   0.000000   0.000000   0.000000   0.000000
    20  C    0.000000   0.000000   0.000000   0.000000   0.000000   0.000000
    21  C    0.002996  -0.000092   0.000000   0.000447   0.000005   0.000002
    22  C    0.285372  -0.043411   0.004725  -0.047345   0.003161  -0.001901
    23  H    0.001522   0.002496  -0.026151  -0.021562   0.393641   0.000015
    24  C   -0.073608   0.001772  -0.000120   0.002960   0.000331   0.000139
    25  C    0.000000   0.000000   0.000000   0.000000   0.000000   0.000000
    26  H    0.000000   0.000000   0.000000   0.000000   0.000000   0.000000
    27  H   -0.000013   0.000000   0.000000   0.000000   0.000000   0.000000
    28  H    0.000000   0.000000   0.000000   0.000000   0.000000   0.000000
    29  C    0.000000   0.000000   0.000000   0.000000   0.000000   0.000000
    30  C    0.000000  -0.000039   0.000000   0.000000   0.000000   0.000006
    31  C   -0.000001  -0.000064   0.000002   0.000000   0.000000   0.000022
    32  C    0.000000   0.000000   0.000000   0.000000   0.000000   0.000000
    33  C    0.000000   0.000000   0.000000   0.000000   0.000000   0.000000
    34  C    0.000000  -0.000007   0.000000   0.000000   0.000000   0.000031
    35  F    0.000000   0.000000   0.000000   0.000000   0.000000   0.000000
    36  H   -0.000020   0.000031   0.000000   0.000000   0.000000  -0.000015
    37  F   -0.001555  -0.000021  -0.000002   0.008936   0.000195   0.000000
    38  C    0.013057  -0.041176   0.031838  -0.052284   0.081563   0.003762
    39  H   -0.000003   0.000166   0.000939   0.000076  -0.001526   0.000000
    40  H    0.000003   0.000119  -0.002653  -0.000122   0.005765  -0.000002
    41  N   -0.000014   0.002481  -0.054889   0.001148  -0.028759  -0.000032
    42  H    0.000582   0.000128  -0.036572  -0.003230  -0.020447   0.000034
    43  H    0.000000   0.000000   0.000000   0.000000   0.000000   0.000000
    44  H    0.000000   0.000000   0.000000   0.000000   0.000000  -0.000001
    45  F    0.000000   0.000000   0.000000   0.000000   0.000000   0.000000
               7          8          9         10         11         12
     1  N   -0.048604  -0.047182  -0.042963   0.001512   0.000000   0.000000
     2  C    0.369741   0.003088   0.003487  -0.022106   0.000000   0.000000
     3  C   -0.050774   0.006669   0.000030   0.395368   0.000000   0.000000
     4  C    0.002985   0.367457   0.359741   0.002906   0.000000   0.000000
     5  C    0.007037  -0.045473  -0.039210  -0.027382   0.000000   0.000000
     6  H   -0.038424  -0.000229   0.000319  -0.002803   0.000000   0.000000
     7  H    0.556368   0.000436  -0.000232   0.000910   0.000000   0.000000
     8  H    0.000436   0.540751  -0.036150  -0.000067   0.000000   0.000000
     9  H   -0.000232  -0.036150   0.542591   0.000012   0.000000   0.000000
    10  H    0.000910  -0.000067   0.000012   0.483213   0.000000   0.000000
    11  O    0.000000   0.000000   0.000000   0.000000   8.074670  -0.001619
    12  O    0.000000   0.000000   0.000000   0.000000  -0.001619   8.221913
    13  O    0.000000   0.000000   0.000000   0.000000   0.000001  -0.066708
    14  N   -0.000002   0.000000   0.000000   0.000000  -0.000014   0.000000
    15  N    0.002896   0.000027   0.000023   0.000001  -0.000002   0.000000
    16  C   -0.000027   0.000003   0.000001   0.000000   0.003337  -0.000001
    17  C   -0.000002  -0.000004  -0.000003   0.000000  -0.133270   0.000066
    18  C    0.000000   0.000000   0.000000   0.000000   0.004406   0.002188
    19  C    0.000000   0.000000   0.000000   0.000000  -0.118907  -0.079589
    20  C    0.000000   0.000000   0.000000   0.000000   0.639709   0.004155
    21  C    0.000003   0.000032   0.000013   0.000000   0.004972   0.000000
    22  C   -0.001018  -0.001277  -0.001911  -0.000025  -0.000008   0.000000
    23  H   -0.000067   0.000857  -0.002953  -0.005021   0.000000   0.000000
    24  C    0.000095   0.000747   0.000928   0.000001   0.000450   0.000000
    25  C    0.000000   0.000000   0.000000   0.000000  -0.004107   0.233771
    26  H    0.000000   0.000000   0.000000   0.000000  -0.000008   0.000119
    27  H    0.000000   0.000001   0.000001   0.000000   0.010043   0.000000
    28  H    0.000000   0.000000   0.000000   0.000000   0.000346   0.234471
    29  C    0.000002   0.000000   0.000000   0.000000   0.000000   0.000000
    30  C    0.000207   0.000000   0.000000   0.000000   0.000000   0.000000
    31  C    0.000557   0.000000   0.000000   0.000000   0.000000   0.000000
    32  C   -0.000001   0.000000   0.000000   0.000000   0.000000   0.000000
    33  C   -0.000001   0.000000   0.000000   0.000000   0.000000   0.000000
    34  C   -0.000013   0.000000   0.000000   0.000000   0.000000   0.000000
    35  F    0.000000   0.000000   0.000000   0.000000   0.000000   0.000000
    36  H    0.000361   0.000000   0.000000   0.000000   0.000000   0.000000
    37  F    0.000000   0.002042   0.001884   0.000000   0.000000   0.000000
    38  C   -0.009007  -0.009549   0.004178  -0.022033   0.000000   0.000000
    39  H    0.000011   0.000006   0.000001   0.002737   0.000000   0.000000
    40  H   -0.000012  -0.000006   0.000001   0.000868   0.000000   0.000000
    41  N    0.000112   0.000066  -0.000019  -0.002770   0.000000   0.000000
    42  H    0.002111   0.002038   0.000085   0.000702   0.000000   0.000000
    43  H    0.000000   0.000000   0.000000   0.000000   0.000000   0.000000
    44  H    0.000020   0.000000   0.000000   0.000000   0.000000   0.000000
    45  F    0.000000   0.000000   0.000000   0.000000   0.000000   0.000000
              13         14         15         16         17         18
     1  N    0.000000   0.000001  -0.052539   0.002366  -0.000344   0.000000
     2  C    0.000000  -0.000009   0.006453   0.000070   0.000032   0.000000
     3  C    0.000000   0.000000   0.000309  -0.000001   0.000000   0.000000
     4  C    0.000000   0.000000   0.000996  -0.000053  -0.000015   0.000000
     5  C    0.000000   0.000000  -0.000043   0.000001   0.000000   0.000000
     6  H    0.000000  -0.000003   0.002796  -0.000030  -0.000001   0.000000
     7  H    0.000000  -0.000002   0.002896  -0.000027  -0.000002   0.000000
     8  H    0.000000   0.000000   0.000027   0.000003  -0.000004   0.000000
     9  H    0.000000   0.000000   0.000023   0.000001  -0.000003   0.000000
    10  H    0.000000   0.000000   0.000001   0.000000   0.000000   0.000000
    11  O    0.000001  -0.000014  -0.000002   0.003337  -0.133270   0.004406
    12  O   -0.066708   0.000000   0.000000  -0.000001   0.000066   0.002188
    13  O    8.144952   0.000043   0.000000   0.000000  -0.000012   0.000277
    14  N    0.000043   7.387937  -0.046340   0.213885  -0.048258   0.266906
    15  N    0.000000  -0.046340   7.113162   0.396830  -0.050022   0.001155
    16  C    0.000000   0.213885   0.396830   4.832520   0.195514  -0.057580
    17  C   -0.000012  -0.048258  -0.050022   0.195514   6.218456   0.000642
    18  C    0.000277   0.266906   0.001155  -0.057580   0.000642   5.110130
    19  C   -0.109642  -0.020042  -0.000328  -0.011032  -0.166492   0.316881
    20  C    0.002549  -0.027156   0.003997   0.007827  -0.035920  -0.028277
    21  C    0.000000   0.003750  -0.041749  -0.094109   0.216939  -0.001002
    22  C    0.000000   0.002231   0.383541  -0.071701  -0.012493  -0.000038
    23  H    0.000000   0.000000   0.000000   0.000000   0.000000   0.000000
    24  C    0.000000  -0.000219  -0.032213  -0.024262  -0.022102  -0.000012
    25  C    0.510128   0.003400   0.000000  -0.000458   0.004288  -0.089491
    26  H    0.014609  -0.027022  -0.000013   0.001668  -0.000334   0.361119
    27  H    0.000000  -0.000012  -0.000073   0.003273  -0.048533  -0.000033
    28  H    0.004232   0.000000   0.000000   0.000000   0.000004  -0.000097
    29  C    0.000000  -0.000258   0.000001   0.000009   0.000000  -0.000018
    30  C    0.000000   0.003998  -0.000072   0.000040   0.000000  -0.000018
    31  C    0.000000  -0.055673   0.001905  -0.000344   0.000073   0.000713
    32  C    0.000000   0.003934   0.000004  -0.000057   0.000000   0.000340
    33  C    0.000000  -0.068693  -0.000324  -0.000174  -0.000144   0.001898
    34  C    0.000002   0.257175  -0.000325  -0.046189   0.002656  -0.059971
    35  F    0.000000   0.000000   0.000000   0.000000   0.000000   0.000000
    36  H    0.000000  -0.006173   0.002667   0.002640   0.000026   0.000038
    37  F    0.000000   0.000000   0.000454  -0.000036   0.002862   0.000000
    38  C    0.000000   0.000000  -0.000003   0.000000   0.000000   0.000000
    39  H    0.000000   0.000000   0.000000   0.000000   0.000000   0.000000
    40  H    0.000000   0.000000   0.000000   0.000000   0.000000   0.000000
    41  N    0.000000   0.000000   0.000000   0.000000   0.000000   0.000000
    42  H    0.000000   0.000000  -0.000001   0.000000   0.000000   0.000000
    43  H    0.000000  -0.000011   0.000000   0.000000   0.000000   0.000000
    44  H    0.000000  -0.000015  -0.000002  -0.000001   0.000000   0.000000
    45  F    0.000000  -0.002645   0.000000  -0.000023  -0.000002   0.003994
              19         20         21         22         23         24
     1  N    0.000000   0.000000   0.002996   0.285372   0.001522  -0.073608
     2  C    0.000000   0.000000  -0.000092  -0.043411   0.002496   0.001772
     3  C    0.000000   0.000000   0.000000   0.004725  -0.026151  -0.000120
     4  C    0.000000   0.000000   0.000447  -0.047345  -0.021562   0.002960
     5  C    0.000000   0.000000   0.000005   0.003161   0.393641   0.000331
     6  H    0.000000   0.000000   0.000002  -0.001901   0.000015   0.000139
     7  H    0.000000   0.000000   0.000003  -0.001018  -0.000067   0.000095
     8  H    0.000000   0.000000   0.000032  -0.001277   0.000857   0.000747
     9  H    0.000000   0.000000   0.000013  -0.001911  -0.002953   0.000928
    10  H    0.000000   0.000000   0.000000  -0.000025  -0.005021   0.000001
    11  O   -0.118907   0.639709   0.004972  -0.000008   0.000000   0.000450
    12  O   -0.079589   0.004155   0.000000   0.000000   0.000000   0.000000
    13  O   -0.109642   0.002549   0.000000   0.000000   0.000000   0.000000
    14  N   -0.020042  -0.027156   0.003750   0.002231   0.000000  -0.000219
    15  N   -0.000328   0.003997  -0.041749   0.383541   0.000000  -0.032213
    16  C   -0.011032   0.007827  -0.094109  -0.071701   0.000000  -0.024262
    17  C   -0.166492  -0.035920   0.216939  -0.012493   0.000000  -0.022102
    18  C    0.316881  -0.028277  -0.001002  -0.000038   0.000000  -0.000012
    19  C    6.409244  -0.056379   0.011717  -0.000031   0.000000   0.000057
    20  C   -0.056379   5.156407  -0.071964  -0.000032   0.000000   0.007731
    21  C    0.011717  -0.071964   5.703699  -0.125245   0.000000   0.225083
    22  C   -0.000031  -0.000032  -0.125245   4.978154  -0.000030   0.104317
    23  H    0.000000   0.000000   0.000000  -0.000030   0.472556   0.000004
    24  C    0.000057   0.007731   0.225083   0.104317   0.000004   5.307107
    25  C    0.099261  -0.040988   0.000033   0.000000   0.000000   0.000000
    26  H   -0.049565   0.003125   0.000001   0.000000   0.000000   0.000000
    27  H    0.000714   0.000792   0.374745   0.004312   0.000000  -0.035932
    28  H    0.008186  -0.000146   0.000000   0.000000   0.000000   0.000000
    29  C    0.000000   0.000000   0.000000   0.000000   0.000000   0.000000
    30  C    0.000000   0.000000   0.000000   0.000000   0.000000   0.000000
    31  C   -0.000054  -0.000001   0.000000  -0.000118   0.000000   0.000001
    32  C    0.000002   0.000000   0.000000   0.000000   0.000000   0.000000
    33  C    0.000313   0.000011   0.000000  -0.000001   0.000000   0.000000
    34  C    0.001748   0.000019  -0.000065   0.000085   0.000000  -0.000002
    35  F    0.000000   0.000000   0.000000   0.000000   0.000000   0.000000
    36  H    0.000002  -0.000004  -0.000002   0.000045   0.000000   0.000006
    37  F    0.000000  -0.000003  -0.054667  -0.050965   0.000000   0.291933
    38  C    0.000000   0.000000   0.000000  -0.000378  -0.020236  -0.000001
    39  H    0.000000   0.000000   0.000000   0.000000   0.001894   0.000000
    40  H    0.000000   0.000000   0.000000   0.000000   0.000025   0.000000
    41  N    0.000000   0.000000   0.000000   0.000001  -0.002310   0.000000
    42  H    0.000000   0.000000   0.000000  -0.000003   0.000612  -0.000001
    43  H    0.000000   0.000000   0.000000   0.000000   0.000000   0.000000
    44  H    0.000000   0.000000   0.000000   0.000000   0.000000   0.000000
    45  F    0.000076   0.000001   0.000000   0.000000   0.000000   0.000000
              25         26         27         28         29         30
     1  N    0.000000   0.000000  -0.000013   0.000000   0.000000   0.000000
     2  C    0.000000   0.000000   0.000000   0.000000   0.000000  -0.000039
     3  C    0.000000   0.000000   0.000000   0.000000   0.000000   0.000000
     4  C    0.000000   0.000000   0.000000   0.000000   0.000000   0.000000
     5  C    0.000000   0.000000   0.000000   0.000000   0.000000   0.000000
     6  H    0.000000   0.000000   0.000000   0.000000   0.000000   0.000006
     7  H    0.000000   0.000000   0.000000   0.000000   0.000002   0.000207
     8  H    0.000000   0.000000   0.000001   0.000000   0.000000   0.000000
     9  H    0.000000   0.000000   0.000001   0.000000   0.000000   0.000000
    10  H    0.000000   0.000000   0.000000   0.000000   0.000000   0.000000
    11  O   -0.004107  -0.000008   0.010043   0.000346   0.000000   0.000000
    12  O    0.233771   0.000119   0.000000   0.234471   0.000000   0.000000
    13  O    0.510128   0.014609   0.000000   0.004232   0.000000   0.000000
    14  N    0.003400  -0.027022  -0.000012   0.000000  -0.000258   0.003998
    15  N    0.000000  -0.000013  -0.000073   0.000000   0.000001  -0.000072
    16  C   -0.000458   0.001668   0.003273   0.000000   0.000009   0.000040
    17  C    0.004288  -0.000334  -0.048533   0.000004   0.000000   0.000000
    18  C   -0.089491   0.361119  -0.000033  -0.000097  -0.000018  -0.000018
    19  C    0.099261  -0.049565   0.000714   0.008186   0.000000   0.000000
    20  C   -0.040988   0.003125   0.000792  -0.000146   0.000000   0.000000
    21  C    0.000033   0.000001   0.374745   0.000000   0.000000   0.000000
    22  C    0.000000   0.000000   0.004312   0.000000   0.000000   0.000000
    23  H    0.000000   0.000000   0.000000   0.000000   0.000000   0.000000
    24  C    0.000000   0.000000  -0.035932   0.000000   0.000000   0.000000
    25  C    4.627954   0.000630   0.000003  -0.021507   0.000000   0.000000
    26  H    0.000630   0.425008   0.000000  -0.000006  -0.000004  -0.000003
    27  H    0.000003   0.000000   0.444983   0.000000   0.000000   0.000000
    28  H   -0.021507  -0.000006   0.000000   0.412090   0.000000   0.000000
    29  C    0.000000  -0.000004   0.000000   0.000000   5.085156   0.237251
    30  C    0.000000  -0.000003   0.000000   0.000000   0.237251   5.572939
    31  C    0.000000   0.000138   0.000000   0.000000  -0.016681   0.301397
    32  C    0.000000  -0.000031   0.000000   0.000000   0.161084  -0.114290
    33  C   -0.000002   0.000528   0.000000   0.000000   0.031706  -0.034953
    34  C   -0.000031  -0.001098   0.000000   0.000000  -0.040575  -0.035781
    35  F    0.000000   0.000000   0.000000   0.000000   0.326597  -0.057904
    36  H    0.000000  -0.000002   0.000000   0.000000   0.003629  -0.036602
    37  F    0.000000   0.000000  -0.001870   0.000000   0.000000   0.000000
    38  C    0.000000   0.000000   0.000000   0.000000   0.000000   0.000000
    39  H    0.000000   0.000000   0.000000   0.000000   0.000000   0.000000
    40  H    0.000000   0.000000   0.000000   0.000000   0.000000   0.000000
    41  N    0.000000   0.000000   0.000000   0.000000   0.000000   0.000000
    42  H    0.000000   0.000000   0.000000   0.000000   0.000000   0.000000
    43  H    0.000000   0.000001   0.000000   0.000000  -0.045688   0.005344
    44  H    0.000000   0.000000   0.000000   0.000000  -0.047064   0.385337
    45  F   -0.000001   0.001522   0.000000   0.000000   0.002094  -0.000200
              31         32         33         34         35         36
     1  N   -0.000001   0.000000   0.000000   0.000000   0.000000  -0.000020
     2  C   -0.000064   0.000000   0.000000  -0.000007   0.000000   0.000031
     3  C    0.000002   0.000000   0.000000   0.000000   0.000000   0.000000
     4  C    0.000000   0.000000   0.000000   0.000000   0.000000   0.000000
     5  C    0.000000   0.000000   0.000000   0.000000   0.000000   0.000000
     6  H    0.000022   0.000000   0.000000   0.000031   0.000000  -0.000015
     7  H    0.000557  -0.000001  -0.000001  -0.000013   0.000000   0.000361
     8  H    0.000000   0.000000   0.000000   0.000000   0.000000   0.000000
     9  H    0.000000   0.000000   0.000000   0.000000   0.000000   0.000000
    10  H    0.000000   0.000000   0.000000   0.000000   0.000000   0.000000
    11  O    0.000000   0.000000   0.000000   0.000000   0.000000   0.000000
    12  O    0.000000   0.000000   0.000000   0.000000   0.000000   0.000000
    13  O    0.000000   0.000000   0.000000   0.000002   0.000000   0.000000
    14  N   -0.055673   0.003934  -0.068693   0.257175   0.000000  -0.006173
    15  N    0.001905   0.000004  -0.000324  -0.000325   0.000000   0.002667
    16  C   -0.000344  -0.000057  -0.000174  -0.046189   0.000000   0.002640
    17  C    0.000073   0.000000  -0.000144   0.002656   0.000000   0.000026
    18  C    0.000713   0.000340   0.001898  -0.059971   0.000000   0.000038
    19  C   -0.000054   0.000002   0.000313   0.001748   0.000000   0.000002
    20  C   -0.000001   0.000000   0.000011   0.000019   0.000000  -0.000004
    21  C    0.000000   0.000000   0.000000  -0.000065   0.000000  -0.000002
    22  C   -0.000118   0.000000  -0.000001   0.000085   0.000000   0.000045
    23  H    0.000000   0.000000   0.000000   0.000000   0.000000   0.000000
    24  C    0.000001   0.000000   0.000000  -0.000002   0.000000   0.000006
    25  C    0.000000   0.000000  -0.000002  -0.000031   0.000000   0.000000
    26  H    0.000138  -0.000031   0.000528  -0.001098   0.000000  -0.000002
    27  H    0.000000   0.000000   0.000000   0.000000   0.000000   0.000000
    28  H    0.000000   0.000000   0.000000   0.000000   0.000000   0.000000
    29  C   -0.016681   0.161084   0.031706  -0.040575   0.326597   0.003629
    30  C    0.301397  -0.114290  -0.034953  -0.035781  -0.057904  -0.036602
    31  C    5.268878  -0.024181  -0.020524   0.329686   0.002344   0.391968
    32  C   -0.024181   5.905899   0.139482  -0.098300  -0.055153  -0.000369
    33  C   -0.020524   0.139482   5.198880   0.149437   0.002146   0.003732
    34  C    0.329686  -0.098300   0.149437   5.399330  -0.000196  -0.038955
[...]
    28  H    0.011781  -0.000064   0.000000   0.000000   0.000000   0.000000
    29  C    0.000000   0.000000   0.000000   0.000000   0.000000   0.000000
    30  C    0.000000   0.000000   0.000000   0.000001   0.000000   0.000000
    31  C   -0.000061   0.000002  -0.000002  -0.000212   0.000000   0.000002
    32  C    0.000002   0.000000   0.000000   0.000000   0.000000   0.000000
    33  C    0.000403   0.000003   0.000001  -0.000002   0.000000   0.000000
    34  C    0.001438  -0.000075  -0.000089   0.000092   0.000000  -0.000001
    35  F    0.000000   0.000000   0.000000   0.000000   0.000000   0.000000
    36  H    0.000002  -0.000002  -0.000006   0.000096   0.000000   0.000017
    37  F    0.000000  -0.000003  -0.056816  -0.049299   0.000000   0.292592
    38  C    0.000000   0.000000   0.000000  -0.000141  -0.023186  -0.000009
    39  H    0.000000   0.000000   0.000000   0.000000   0.003541   0.000000
    40  H    0.000000   0.000000   0.000000   0.000000   0.000009   0.000000
    41  N    0.000000   0.000000   0.000000   0.000001  -0.002892   0.000000
    42  H    0.000000   0.000000   0.000000   0.000079   0.001017  -0.000012
    43  H    0.000000   0.000000   0.000000   0.000000   0.000000   0.000000
    44  H    0.000000   0.000000   0.000000   0.000000   0.000000   0.000000
    45  F    0.000176   0.000002   0.000000   0.000000   0.000000   0.000000
              25         26         27         28         29         30
     1  N    0.000000   0.000000  -0.000014   0.000000   0.000000   0.000000
     2  C    0.000000   0.000000   0.000000   0.000000  -0.000001  -0.000118
     3  C    0.000000   0.000000   0.000000   0.000000   0.000000   0.000001
     4  C    0.000000   0.000000  -0.000001   0.000000   0.000000   0.000000
     5  C    0.000000   0.000000   0.000000   0.000000   0.000000   0.000000
     6  H    0.000000   0.000000   0.000000   0.000000   0.000000   0.000006
     7  H    0.000000   0.000000   0.000000   0.000000   0.000005   0.000587
     8  H    0.000000   0.000000   0.000002   0.000000   0.000000   0.000000
     9  H    0.000000   0.000000   0.000000   0.000000   0.000000   0.000000
    10  H    0.000000   0.000000   0.000000   0.000000   0.000000   0.000000
    11  O   -0.003842  -0.000001   0.015162   0.000206   0.000000   0.000000
    12  O    0.222424   0.000280   0.000000   0.237543   0.000000   0.000000
    13  O    0.519014   0.022061   0.000000   0.004298   0.000000   0.000000
    14  N    0.004575  -0.031667  -0.000018   0.000000  -0.000318   0.004094
    15  N    0.000000  -0.000028  -0.000040   0.000000   0.000001   0.000021
    16  C   -0.000494   0.002307   0.003475   0.000000   0.000012   0.000016
    17  C    0.005815  -0.000508  -0.054038   0.000005   0.000000   0.000000
    18  C   -0.094428   0.359283  -0.000054  -0.000290  -0.000025  -0.000028
    19  C    0.060268  -0.054979   0.001285   0.011781   0.000000   0.000000
    20  C   -0.036976   0.003013   0.002017  -0.000064   0.000000   0.000000
    21  C   -0.000005   0.000000   0.369313   0.000000   0.000000   0.000000
    22  C    0.000000   0.000001   0.004176   0.000000   0.000000   0.000001
    23  H    0.000000   0.000000   0.000000   0.000000   0.000000   0.000000
    24  C    0.000000   0.000000  -0.034171   0.000000   0.000000   0.000000
    25  C    4.684598  -0.000072   0.000004  -0.028589   0.000000   0.000000
    26  H   -0.000072   0.428563   0.000000  -0.000015  -0.000006   0.000003
    27  H    0.000004   0.000000   0.445474   0.000000   0.000000   0.000000
    28  H   -0.028589  -0.000015   0.000000   0.413989   0.000000   0.000000
    29  C    0.000000  -0.000006   0.000000   0.000000   5.099706   0.239265
    30  C    0.000000   0.000003   0.000000   0.000000   0.239265   5.578320
    31  C    0.000000   0.000178   0.000000   0.000000  -0.018132   0.298007
    32  C    0.000000  -0.000100   0.000000   0.000000   0.150134  -0.115722
    33  C   -0.000003  -0.000513   0.000000   0.000000   0.030788  -0.036574
    34  C   -0.000016  -0.003422   0.000001   0.000000  -0.042405  -0.034806
    35  F    0.000000   0.000000   0.000000   0.000000   0.325279  -0.057348
    36  H    0.000000  -0.000003   0.000000   0.000000   0.003714  -0.036060
    37  F    0.000000   0.000000  -0.001827   0.000000   0.000000   0.000000
    38  C    0.000000   0.000000   0.000000   0.000000   0.000000   0.000000
    39  H    0.000000   0.000000   0.000000   0.000000   0.000000   0.000000
    40  H    0.000000   0.000000   0.000000   0.000000   0.000000   0.000000
    41  N    0.000000   0.000000   0.000000   0.000000   0.000000   0.000000
    42  H    0.000000   0.000000   0.000000   0.000000   0.000000   0.000000
    43  H    0.000000   0.000004   0.000000   0.000000  -0.045662   0.005266
    44  H    0.000000   0.000000   0.000000   0.000000  -0.048165   0.386406
    45  F   -0.000007   0.005698   0.000000   0.000000   0.002236  -0.000206
              31         32         33         34         35         36
     1  N    0.000009   0.000000   0.000000  -0.000001   0.000000  -0.000065
     2  C   -0.000394   0.000000   0.000001  -0.000015   0.000000   0.000075
     3  C    0.000006   0.000000   0.000000   0.000000   0.000000   0.000000
     4  C    0.000000   0.000000   0.000000   0.000000   0.000000   0.000000
     5  C    0.000000   0.000000   0.000000   0.000000   0.000000   0.000000
     6  H    0.000037   0.000000  -0.000001   0.000039   0.000000  -0.000034
     7  H    0.001554  -0.000003  -0.000004  -0.000032   0.000000   0.001212
     8  H    0.000000   0.000000   0.000000   0.000000   0.000000   0.000000
     9  H    0.000000   0.000000   0.000000   0.000000   0.000000   0.000000
    10  H    0.000000   0.000000   0.000000   0.000000   0.000000   0.000000
    11  O    0.000000   0.000000   0.000000   0.000000   0.000000   0.000000
    12  O    0.000000   0.000000   0.000000   0.000000   0.000000   0.000000
    13  O    0.000000   0.000000  -0.000001   0.000005   0.000000   0.000000
    14  N   -0.051338   0.004281  -0.071544   0.253495   0.000000  -0.007126
    15  N    0.000522   0.000004  -0.000410  -0.001594   0.000000   0.005278
    16  C   -0.000487  -0.000076  -0.000153  -0.042668   0.000000   0.002943
    17  C    0.000112   0.000000  -0.000162   0.002991   0.000000   0.000086
    18  C    0.000867   0.000495   0.002060  -0.065876   0.000000  -0.000016
    19  C   -0.000061   0.000002   0.000403   0.001438   0.000000   0.000002
    20  C    0.000002   0.000000   0.000003  -0.000075   0.000000  -0.000002
    21  C   -0.000002   0.000000   0.000001  -0.000089   0.000000  -0.000006
    22  C   -0.000212   0.000000  -0.000002   0.000092   0.000000   0.000096
    23  H    0.000000   0.000000   0.000000   0.000000   0.000000   0.000000
    24  C    0.000002   0.000000   0.000000  -0.000001   0.000000   0.000017
    25  C    0.000000   0.000000  -0.000003  -0.000016   0.000000   0.000000
    26  H    0.000178  -0.000100  -0.000513  -0.003422   0.000000  -0.000003
    27  H    0.000000   0.000000   0.000000   0.000001   0.000000   0.000000
    28  H    0.000000   0.000000   0.000000   0.000000   0.000000   0.000000
    29  C   -0.018132   0.150134   0.030788  -0.042405   0.325279   0.003714
    30  C    0.298007  -0.115722  -0.036574  -0.034806  -0.057348  -0.036060
    31  C    5.275470  -0.026118  -0.017989   0.325718   0.002459   0.390348
    32  C   -0.026118   5.918914   0.132587  -0.094549  -0.055696  -0.000372
    33  C   -0.017989   0.132587   5.219234   0.149621   0.002428   0.004078
    34  C    0.325718  -0.094549   0.149621   5.394907  -0.000205  -0.040582
    35  F    0.002459  -0.055696   0.002428  -0.000205   9.072518  -0.000001
    36  H    0.390348  -0.000372   0.004078  -0.040582  -0.000001   0.453812
    37  F    0.000000   0.000000   0.000000   0.000000   0.000000   0.000000
    38  C    0.000000   0.000000   0.000000   0.000000   0.000000   0.000000
    39  H    0.000000   0.000000   0.000000   0.000000   0.000000   0.000000
    40  H    0.000000   0.000000   0.000000   0.000000   0.000000   0.000000
    41  N    0.000000   0.000000   0.000000   0.000000   0.000000   0.000000
    42  H    0.000000   0.000000   0.000000   0.000000   0.000000   0.000001
    43  H   -0.000865   0.381382  -0.045679   0.005708  -0.002373  -0.000001
    44  H   -0.036816   0.005646  -0.000630   0.004485  -0.002037  -0.004115
    45  F    0.002230  -0.056847   0.326034  -0.066882   0.000000   0.000000
              37         38         39         40         41         42
     1  N   -0.001986   0.011261  -0.000002   0.000003   0.000003   0.003744
     2  C   -0.000024  -0.035021  -0.000029   0.000170   0.001791   0.002271
     3  C   -0.000003   0.011468   0.003353  -0.004618  -0.051116  -0.058669
     4  C    0.006941  -0.051204   0.000172  -0.000085   0.001212  -0.002840
     5  C    0.000271   0.092066  -0.006443   0.004927  -0.023976  -0.027480
     6  H    0.000000   0.003826   0.000002  -0.000002  -0.000019   0.000061
     7  H    0.000000  -0.005823   0.000002  -0.000003   0.000069   0.001811
     8  H    0.009816  -0.006555   0.000015  -0.000004   0.000036   0.001416
     9  H   -0.000039   0.004774  -0.000003   0.000001  -0.000014   0.000183
    10  H    0.000000  -0.019787   0.000447   0.000935  -0.001296   0.001124
    11  O    0.000000   0.000000   0.000000   0.000000   0.000000   0.000000
    12  O    0.000000   0.000000   0.000000   0.000000   0.000000   0.000000
    13  O    0.000000   0.000000   0.000000   0.000000   0.000000   0.000000
    14  N    0.000000   0.000000   0.000000   0.000000   0.000000   0.000000
    15  N    0.000430  -0.000011   0.000000   0.000000   0.000000  -0.000017
    16  C   -0.000017   0.000000   0.000000   0.000000   0.000000   0.000000
    17  C    0.002457   0.000000   0.000000   0.000000   0.000000   0.000000
    18  C    0.000000   0.000000   0.000000   0.000000   0.000000   0.000000
    19  C    0.000000   0.000000   0.000000   0.000000   0.000000   0.000000
    20  C   -0.000003   0.000000   0.000000   0.000000   0.000000   0.000000
    21  C   -0.056816   0.000000   0.000000   0.000000   0.000000   0.000000
    22  C   -0.049299  -0.000141   0.000000   0.000000   0.000001   0.000079
    23  H    0.000000  -0.023186   0.003541   0.000009  -0.002892   0.001017
    24  C    0.292592  -0.000009   0.000000   0.000000   0.000000  -0.000012
    25  C    0.000000   0.000000   0.000000   0.000000   0.000000   0.000000
    26  H    0.000000   0.000000   0.000000   0.000000   0.000000   0.000000
    27  H   -0.001827   0.000000   0.000000   0.000000   0.000000   0.000000
    28  H    0.000000   0.000000   0.000000   0.000000   0.000000   0.000000
    29  C    0.000000   0.000000   0.000000   0.000000   0.000000   0.000000
    30  C    0.000000   0.000000   0.000000   0.000000   0.000000   0.000000
    31  C    0.000000   0.000000   0.000000   0.000000   0.000000   0.000000
    32  C    0.000000   0.000000   0.000000   0.000000   0.000000   0.000000
    33  C    0.000000   0.000000   0.000000   0.000000   0.000000   0.000000
    34  C    0.000000   0.000000   0.000000   0.000000   0.000000   0.000000
    35  F    0.000000   0.000000   0.000000   0.000000   0.000000   0.000000
    36  H    0.000000   0.000000   0.000000   0.000000   0.000000   0.000001
    37  F    9.084427  -0.000001   0.000000   0.000000   0.000000   0.000000
    38  C   -0.000001   5.391126  -0.051514  -0.048490   0.319404   0.388708
    39  H    0.000000  -0.051514   0.475157  -0.034748   0.333139   0.003255
    40  H    0.000000  -0.048490  -0.034748   0.480335   0.328994   0.000027
    41  N    0.000000   0.319404   0.333139   0.328994   6.808379  -0.033033
    42  H    0.000000   0.388708   0.003255   0.000027  -0.033033   0.510185
    43  H    0.000000   0.000000   0.000000   0.000000   0.000000   0.000000
    44  H    0.000000   0.000000   0.000000   0.000000   0.000000   0.000000
    45  F    0.000000   0.000000   0.000000   0.000000   0.000000   0.000000
              43         44         45
     1  N    0.000000   0.000000   0.000000
     2  C    0.000000   0.000001   0.000000
     3  C    0.000000   0.000000   0.000000
     4  C    0.000000   0.000000   0.000000
     5  C    0.000000   0.000000   0.000000
     6  H    0.000000  -0.000001   0.000000
     7  H    0.000000   0.000043   0.000000
     8  H    0.000000   0.000000   0.000000
     9  H    0.000000   0.000000   0.000000
    10  H    0.000000   0.000000   0.000000
    11  O    0.000000   0.000000   0.000000
    12  O    0.000000   0.000000   0.000000
    13  O    0.000000   0.000000   0.000000
    14  N   -0.000011  -0.000012  -0.003950
    15  N    0.000000  -0.000003   0.000000
    16  C    0.000001  -0.000001  -0.000043
    17  C    0.000000   0.000000  -0.000004
    18  C    0.000000   0.000000   0.005379
    19  C    0.000000   0.000000   0.000176
    20  C    0.000000   0.000000   0.000002
    21  C    0.000000   0.000000   0.000000
    22  C    0.000000   0.000000   0.000000
    23  H    0.000000   0.000000   0.000000
    24  C    0.000000   0.000000   0.000000
    25  C    0.000000   0.000000  -0.000007
    26  H    0.000004   0.000000   0.005698
    27  H    0.000000   0.000000   0.000000
    28  H    0.000000   0.000000   0.000000
    29  C   -0.045662  -0.048165   0.002236
    30  C    0.005266   0.386406  -0.000206
    31  C   -0.000865  -0.036816   0.002230
    32  C    0.381382   0.005646  -0.056847
    33  C   -0.045679  -0.000630   0.326034
    34  C    0.005708   0.004485  -0.066882
    35  F   -0.002373  -0.002037   0.000000
    36  H   -0.000001  -0.004115   0.000000
    37  F    0.000000   0.000000   0.000000
    38  C    0.000000   0.000000   0.000000
    39  H    0.000000   0.000000   0.000000
    40  H    0.000000   0.000000   0.000000
    41  N    0.000000   0.000000   0.000000
    42  H    0.000000   0.000000   0.000000
    43  H    0.461036  -0.000018  -0.002060
    44  H   -0.000018   0.473853   0.000000
    45  F   -0.002060   0.000000   9.065085
 Mulliken charges:
               1
     1  N   -0.698707
     2  C   -0.142663
     3  C   -0.266344
     4  C   -0.161267
     5  C   -0.259540
     6  H    0.212226
     7  H    0.226036
     8  H    0.235719
     9  H    0.212472
    10  H    0.193464
    11  O   -0.495011
    12  O   -0.540141
    13  O   -0.512429
    14  N   -0.902846
    15  N   -0.712331
    16  C    0.654486
    17  C   -0.104728
    18  C    0.217760
    19  C   -0.207855
    20  C    0.389002
    21  C   -0.146461
    22  C    0.644271
    23  H    0.197646
    24  C    0.239299
    25  C    0.667736
    26  H    0.269924
    27  H    0.249255
    28  H    0.361136
    29  C    0.303573
    30  C   -0.231131
    31  C   -0.145111
    32  C   -0.243962
    33  C    0.306429
    34  C    0.254718
    35  F   -0.285025
    36  H    0.226724
    37  F   -0.286919
    38  C    0.019110
    39  H    0.273655
    40  H    0.272548
    41  N   -0.680683
    42  H    0.208170
    43  H    0.243274
    44  H    0.221363
    45  F   -0.276841
 Sum of Mulliken charges =   0.00000
 Mulliken charges with hydrogens summed into heavy atoms:
               1
     1  N   -0.698707
     2  C    0.295599
     3  C   -0.072879
     4  C    0.286923
     5  C   -0.061894
    11  O   -0.495011
    12  O   -0.179005
    13  O   -0.512429
    14  N   -0.902846
    15  N   -0.712331
    16  C    0.654486
    17  C   -0.104728
    18  C    0.487684
    19  C   -0.207855
    20  C    0.389002
    21  C    0.102794
    22  C    0.644271
    24  C    0.239299
    25  C    0.667736
    29  C    0.303573
    30  C   -0.009769
    31  C    0.081613
    32  C   -0.000688
    33  C    0.306429
    34  C    0.254718
    35  F   -0.285025
    37  F   -0.286919
    38  C    0.227280
    41  N   -0.134481
    45  F   -0.276841
 Electronic spatial extent (au):  <R**2>=          13719.1427
 Charge=              0.0000 electrons
 Dipole moment (field-independent basis, Debye):
    X=              6.3995    Y=              4.0578    Z=              0.6469  Tot=              7.6051
 Quadrupole moment (field-independent basis, Debye-Ang):
   XX=           -155.3483   YY=           -179.4542   ZZ=           -167.6911
   XY=              0.2509   XZ=              6.4589   YZ=             -2.8601
 Traceless Quadrupole moment (field-independent basis, Debye-Ang):
   XX=             12.1495   YY=            -11.9563   ZZ=             -0.1933
   XY=              0.2509   XZ=              6.4589   YZ=             -2.8601
 Octapole moment (field-independent basis, Debye-Ang**2):
  XXX=            112.2769  YYY=             44.5196  ZZZ=              9.3345  XYY=             25.1226
  XXY=             22.7549  XXZ=             56.2707  XZZ=            -16.5156  YZZ=             12.8529
  YYZ=             12.1836  XYZ=            -29.7613
 Hexadecapole moment (field-independent basis, Debye-Ang**3):
 XXXX=          -9286.6112 YYYY=          -6192.2098 ZZZZ=           -551.7668 XXXY=            693.6073
 XXXZ=            361.8714 YYYX=           -227.9088 YYYZ=             61.3815 ZZZX=             -2.1346
 ZZZY=              6.4272 XXYY=          -2708.9509 XXZZ=          -1967.1142 YYZZ=          -1002.1460
 XXYZ=            -77.8653 YYXZ=            -61.8097 ZZXY=             36.4822
 N-N= 2.875802581631D+03 E-N=-9.274739084793D+03  KE= 1.494884524462D+03
 1\1\GINC-NODE045\FOpt\RB3LYP\3-21G\C20H15F3N4O3\SUPERCOMPUTO1\06-Jul-2
 020\0\\# opt b3lyp/3-21g geom=connectivity\\Title Card Required\\0,1\N
 ,7.1939881917,5.6728806062,8.9188113616\C,7.4804725029,6.4696223595,10
 .1460712693\C,7.3801203602,5.4542755264,11.2694647803\C,6.516129479,4.
 3759062783,9.2141360852\C,6.7936441686,4.1603238781,10.6908152735\H,6.
 7471992416,7.278959517,10.258371258\H,8.4709290956,6.9217691687,10.055
 9815778\H,6.9304533033,3.5871365278,8.587879436\H,5.4377248412,4.44749
 72148,9.0252421436\H,7.1093829251,5.7913622535,12.2613801381\O,7.61961
 12792,7.571364947,2.8626228442\O,8.4813985377,9.8802597038,1.706995474
 \O,9.3002389354,11.5282012288,3.0565158427\N,8.6679053554,9.3500206023
 ,6.467857176\N,7.9101943865,7.4561620061,7.639164882\C,8.0979209506,8.
 0570556982,6.4592389319\C,7.7587868999,7.4861778465,5.2288452265\C,8.8
 323598331,10.0042962595,5.2743385656\C,8.5160261192,9.4898987562,4.051
 6500025\C,7.9417283124,8.1475334458,3.9195119475\C,7.1922660974,6.2006
 128361,5.2743471267\C,7.3647125532,6.2220415643,7.6884110327\H,6.09313
 52415,3.5606410235,11.2591023922\C,6.997825556,5.5753022396,6.47128045
 92\C,8.8084435294,10.4008442993,2.9318720074\H,9.2455211436,11.0023209
 172,5.3174046491\H,6.9143643074,5.7345839805,4.3379769489\H,8.71433929
 28,10.5662284776,1.0214703454\C,9.7587860941,11.3440603476,10.02668656
 04\C,10.2471324252,10.0637057169,9.7914156372\C,9.8892827843,9.3993408
 61,8.6230551843\C,8.9229790361,11.965368334,9.1114707817\C,8.564332533
 2,11.2879755684,7.9574440421\C,9.039021066,10.0014772046,7.6926360605\
 F,10.1096832384,12.0049553597,11.1685582906\H,10.2581910864,8.40423435
 35,8.428486171\F,6.4324473591,4.3186456852,6.5198214633\C,8.2490286632
 ,4.1909881991,11.1143863747\H,7.8798965142,2.9764918719,12.7681778082\
 H,9.3301579336,3.8379648219,12.8579082675\N,8.6507862849,3.3879869328,
 12.243336547\H,8.9755055652,4.2269475551,10.30493165\H,8.5497336446,12
 .9621373735,9.2907936965\H,10.9064924087,9.6053258049,10.5145107535\F,
 7.7553709231,11.9031148475,7.0423455336\\Version=ES64L-G09RevD.01\Stat
 e=1-A\HF=-1507.0213492\RMSD=5.309e-09\RMSF=7.362e-06\Dipole=-0.0514293
 ,-0.5003825,2.9494895\Quadrupole=1.500391,-3.2451342,1.7447432,2.79218
 97,-4.8005887,-8.3172502\PG=C01 [X(C20H15F3N4O3)]\\@


 THE GREAT THING ABOUT BEING IMPERFECT IS THE JOY IT BRINGS OTHERS.
   -- SIGN OUTSIDE LAKE AGASSIZ JR. HIGH SCHOOL, FARGO, N.D.
 Job cpu time:       0 days  1 hours 50 minutes 58.0 seconds.
 File lengths (MBytes):  RWF=     59 Int=      0 D2E=      0 Chk=      8 Scr=      1
 Normal termination of Gaussian 09 at Mon Jul  6 12:40:48 2020.
