 Entering Gaussian System, Link 0=g09
 Input=nifuroxima.gjf
 Output=nifuroxima.log
 Initial command:
 /usr/local/cluster_programs/g09/l1.exe "/tmp/scratch/63911.prometeo/Gau-19970.inp" -scrdir="/tmp/scratch/63911.prometeo/"
 Entering Link 1 = /usr/local/cluster_programs/g09/l1.exe PID=     19971.
  
 Copyright (c) 1988,1990,1992,1993,1995,1998,2003,2009,2013,
            Gaussian, Inc.  All Rights Reserved.
  
 This is part of the Gaussian(R) 09 program.  It is based on
 the Gaussian(R) 03 system (copyright 2003, Gaussian, Inc.),
 the Gaussian(R) 98 system (copyright 1998, Gaussian, Inc.),
 the Gaussian(R) 94 system (copyright 1995, Gaussian, Inc.),
 the Gaussian 92(TM) system (copyright 1992, Gaussian, Inc.),
 the Gaussian 90(TM) system (copyright 1990, Gaussian, Inc.),
 the Gaussian 88(TM) system (copyright 1988, Gaussian, Inc.),
 the Gaussian 86(TM) system (copyright 1986, Carnegie Mellon
 University), and the Gaussian 82(TM) system (copyright 1983,
 Carnegie Mellon University). Gaussian is a federally registered
 trademark of Gaussian, Inc.
  
 This software contains proprietary and confidential information,
 including trade secrets, belonging to Gaussian, Inc.
  
 This software is provided under written license and may be
 used, copied, transmitted, or stored only in accord with that
 written license.
  
 The following legend is applicable only to US Government
 contracts under FAR:
  
                    RESTRICTED RIGHTS LEGEND
  
 Use, reproduction and disclosure by the US Government is
 subject to restrictions as set forth in subparagraphs (a)
 and (c) of the Commercial Computer Software - Restricted
 Rights clause in FAR 52.227-19.
  
 Gaussian, Inc.
 340 Quinnipiac St., Bldg. 40, Wallingford CT 06492
  
  
 ---------------------------------------------------------------
 Warning -- This program may not be used in any manner that
 competes with the business of Gaussian, Inc. or will provide
 assistance to any competitor of Gaussian, Inc.  The licensee
 of this program is prohibited from giving any competitor of
 Gaussian, Inc. access to this program.  By using this program,
 the user acknowledges that Gaussian, Inc. is engaged in the
 business of creating and licensing software in the field of
 computational chemistry and represents and warrants to the
 licensee that it is not a competitor of Gaussian, Inc. and that
 it will not use this program in any manner prohibited above.
 ---------------------------------------------------------------
  

 Cite this work as:
 Gaussian 09, Revision D.01,
 M. J. Frisch, G. W. Trucks, H. B. Schlegel, G. E. Scuseria, 
 M. A. Robb, J. R. Cheeseman, G. Scalmani, V. Barone, B. Mennucci, 
 G. A. Petersson, H. Nakatsuji, M. Caricato, X. Li, H. P. Hratchian, 
 A. F. Izmaylov, J. Bloino, G. Zheng, J. L. Sonnenberg, M. Hada, 
 M. Ehara, K. Toyota, R. Fukuda, J. Hasegawa, M. Ishida, T. Nakajima, 
 Y. Honda, O. Kitao, H. Nakai, T. Vreven, J. A. Montgomery, Jr., 
 J. E. Peralta, F. Ogliaro, M. Bearpark, J. J. Heyd, E. Brothers, 
 K. N. Kudin, V. N. Staroverov, T. Keith, R. Kobayashi, J. Normand, 
 K. Raghavachari, A. Rendell, J. C. Burant, S. S. Iyengar, J. Tomasi, 
 M. Cossi, N. Rega, J. M. Millam, M. Klene, J. E. Knox, J. B. Cross, 
 V. Bakken, C. Adamo, J. Jaramillo, R. Gomperts, R. E. Stratmann, 
 O. Yazyev, A. J. Austin, R. Cammi, C. Pomelli, J. W. Ochterski, 
 R. L. Martin, K. Morokuma, V. G. Zakrzewski, G. A. Voth, 
 P. Salvador, J. J. Dannenberg, S. Dapprich, A. D. Daniels, 
 O. Farkas, J. B. Foresman, J. V. Ortiz, J. Cioslowski, 
 and D. J. Fox, Gaussian, Inc., Wallingford CT, 2013.
 
 ******************************************
 Gaussian 09:  ES64L-G09RevD.01 24-Apr-2013
                 6-Jul-2020 
 ******************************************
 %nprocshared=20
 Will use up to   20 processors via shared memory.
 -----------------------------------
 # opt b3lyp/3-21g geom=connectivity
 -----------------------------------
 1/14=-1,18=20,19=15,26=3,38=1,57=2/1,3;
 2/9=110,12=2,17=6,18=5,40=1/2;
 3/5=5,11=2,16=1,25=1,30=1,71=1,74=-5/1,2,3;
 4//1;
 5/5=2,38=5/2;
 6/7=2,8=2,9=2,10=2,28=1/1;
 7//1,2,3,16;
 1/14=-1,18=20,19=15,26=3/3(2);
 2/9=110/2;
 99//99;
 2/9=110/2;
 3/5=5,11=2,16=1,25=1,30=1,71=1,74=-5/1,2,3;
 4/5=5,16=3,69=1/1;
 5/5=2,38=5/2;
 7//1,2,3,16;
 1/14=-1,18=20,19=15,26=3/3(-5);
 2/9=110/2;
 6/7=2,8=2,9=2,10=2,19=2,28=1/1;
 99/9=1/99;
 -------------------
 Title Card Required
 -------------------
 Symbolic Z-matrix:
 Charge =  0 Multiplicity = 1
 O                     4.59521   5.15168  -2.80707 
 O                     1.13892   5.89664  -2.60403 
 O                     2.21141   4.00676  -2.13767 
 O                     9.151     6.08416  -2.58193 
 N                     2.19238   5.19921  -2.54517 
 N                     7.84388   6.58412  -2.61551 
 C                     5.60087   6.08045  -3.03597 
 C                     3.4155    5.85576  -2.91038 
 C                     5.04497   7.31651  -3.31507 
 C                     3.64707   7.17459  -3.24221 
 C                     6.97506   5.66085  -2.90398 
 H                     6.16798   8.22434  -3.53343 
 H                     2.89151   7.94279  -3.38543 
 H                     9.67291   7.15909  -2.33668 
 H                     7.2728    4.61784  -3.05222 
 

 GradGradGradGradGradGradGradGradGradGradGradGradGradGradGradGradGradGrad
 Berny optimization.
 Initialization pass.
                           ----------------------------
                           !    Initial Parameters    !
                           ! (Angstroms and Degrees)  !
 --------------------------                            --------------------------
 ! Name  Definition              Value          Derivative Info.                !
 --------------------------------------------------------------------------------
 ! R1    R(1,7)                  1.3879         estimate D2E/DX2                !
 ! R2    R(1,8)                  1.3777         estimate D2E/DX2                !
 ! R3    R(2,5)                  1.2648         estimate D2E/DX2                !
 ! R4    R(3,5)                  1.2603         estimate D2E/DX2                !
 ! R5    R(4,6)                  1.3999         estimate D2E/DX2                !
 ! R6    R(4,14)                 1.2198         estimate D2E/DX2                !
 ! R7    R(5,8)                  1.4354         estimate D2E/DX2                !
 ! R8    R(6,11)                 1.3002         estimate D2E/DX2                !
 ! R9    R(7,9)                  1.3838         estimate D2E/DX2                !
 ! R10   R(7,11)                 1.4429         estimate D2E/DX2                !
 ! R11   R(8,10)                 1.3795         estimate D2E/DX2                !
 ! R12   R(9,10)                 1.407          estimate D2E/DX2                !
 ! R13   R(9,12)                 1.4605         estimate D2E/DX2                !
 ! R14   R(10,13)                1.087          estimate D2E/DX2                !
 ! R15   R(11,15)                1.0948         estimate D2E/DX2                !
 ! A1    A(7,1,8)              105.4316         estimate D2E/DX2                !
 ! A2    A(6,4,14)              95.1409         estimate D2E/DX2                !
 ! A3    A(2,5,3)              123.3234         estimate D2E/DX2                !
 ! A4    A(2,5,8)              116.4663         estimate D2E/DX2                !
 ! A5    A(3,5,8)              120.1433         estimate D2E/DX2                !
 ! A6    A(4,6,11)             112.0652         estimate D2E/DX2                !
 ! A7    A(1,7,9)              109.8726         estimate D2E/DX2                !
 ! A8    A(1,7,11)             118.7111         estimate D2E/DX2                !
 ! A9    A(9,7,11)             131.3633         estimate D2E/DX2                !
 ! A10   A(1,8,5)              118.4767         estimate D2E/DX2                !
 ! A11   A(1,8,10)             111.2764         estimate D2E/DX2                !
 ! A12   A(5,8,10)             129.9042         estimate D2E/DX2                !
 ! A13   A(7,9,10)             107.3733         estimate D2E/DX2                !
 ! A14   A(7,9,12)             106.0516         estimate D2E/DX2                !
 ! A15   A(10,9,12)            146.5553         estimate D2E/DX2                !
 ! A16   A(8,10,9)             106.0019         estimate D2E/DX2                !
 ! A17   A(8,10,13)            126.2036         estimate D2E/DX2                !
 ! A18   A(9,10,13)            127.7712         estimate D2E/DX2                !
 ! A19   A(6,11,7)             116.7571         estimate D2E/DX2                !
 ! A20   A(6,11,15)            121.6578         estimate D2E/DX2                !
 ! A21   A(7,11,15)            121.5807         estimate D2E/DX2                !
 ! D1    D(8,1,7,9)             -1.8509         estimate D2E/DX2                !
 ! D2    D(8,1,7,11)           175.8011         estimate D2E/DX2                !
 ! D3    D(7,1,8,5)           -171.7562         estimate D2E/DX2                !
 ! D4    D(7,1,8,10)             2.1837         estimate D2E/DX2                !
 ! D5    D(14,4,6,11)          178.241          estimate D2E/DX2                !
 ! D6    D(2,5,8,1)            177.2945         estimate D2E/DX2                !
 ! D7    D(2,5,8,10)             4.6626         estimate D2E/DX2                !
 ! D8    D(3,5,8,1)              0.173          estimate D2E/DX2                !
 ! D9    D(3,5,8,10)          -172.459          estimate D2E/DX2                !
 ! D10   D(4,6,11,7)          -176.7871         estimate D2E/DX2                !
 ! D11   D(4,6,11,15)            2.4572         estimate D2E/DX2                !
 ! D12   D(1,7,9,10)             0.8775         estimate D2E/DX2                !
 ! D13   D(1,7,9,12)           179.711          estimate D2E/DX2                !
 ! D14   D(11,7,9,10)         -176.3784         estimate D2E/DX2                !
 ! D15   D(11,7,9,12)            2.4551         estimate D2E/DX2                !
 ! D16   D(1,7,11,6)          -154.4394         estimate D2E/DX2                !
 ! D17   D(1,7,11,15)           26.3157         estimate D2E/DX2                !
 ! D18   D(9,7,11,6)            22.6181         estimate D2E/DX2                !
 ! D19   D(9,7,11,15)         -156.6268         estimate D2E/DX2                !
 ! D20   D(1,8,10,9)            -1.6711         estimate D2E/DX2                !
 ! D21   D(1,8,10,13)          179.9757         estimate D2E/DX2                !
 ! D22   D(5,8,10,9)           171.3807         estimate D2E/DX2                !
 ! D23   D(5,8,10,13)           -6.9725         estimate D2E/DX2                !
 ! D24   D(7,9,10,8)             0.4627         estimate D2E/DX2                !
 ! D25   D(7,9,10,13)          178.7816         estimate D2E/DX2                !
 ! D26   D(12,9,10,8)         -177.503          estimate D2E/DX2                !
 ! D27   D(12,9,10,13)           0.8159         estimate D2E/DX2                !
 --------------------------------------------------------------------------------
 Trust Radius=3.00D-01 FncErr=1.00D-07 GrdErr=1.00D-06
 Number of steps in this run=     73 maximum allowed number of steps=    100.
 GradGradGradGradGradGradGradGradGradGradGradGradGradGradGradGradGradGrad

                          Input orientation:                          
 ---------------------------------------------------------------------
 Center     Atomic      Atomic             Coordinates (Angstroms)
 Number     Number       Type             X           Y           Z
 ---------------------------------------------------------------------
      1          8           0        4.595210    5.151680   -2.807070
      2          8           0        1.138920    5.896640   -2.604030
      3          8           0        2.211410    4.006760   -2.137670
      4          8           0        9.151000    6.084160   -2.581930
      5          7           0        2.192380    5.199210   -2.545170
      6          7           0        7.843880    6.584120   -2.615510
      7          6           0        5.600870    6.080450   -3.035970
      8          6           0        3.415500    5.855760   -2.910380
      9          6           0        5.044970    7.316510   -3.315070
     10          6           0        3.647070    7.174590   -3.242210
     11          6           0        6.975060    5.660850   -2.903980
     12          1           0        6.167980    8.224340   -3.533430
     13          1           0        2.891510    7.942790   -3.385430
     14          1           0        9.672910    7.159090   -2.336680
     15          1           0        7.272800    4.617840   -3.052220
 ---------------------------------------------------------------------
                    Distance matrix (angstroms):
                    1          2          3          4          5
     1  O    0.000000
     2  O    3.541487   0.000000
     3  O    2.727900   2.222470   0.000000
     4  O    4.655688   8.014305   7.257470   0.000000
     5  N    2.417528   1.264773   1.260300   7.014762   0.000000
     6  N    3.555620   6.740122   6.212555   1.399875   5.819139
     7  C    1.387934   4.486575   4.073766   3.579049   3.554613
     8  C    1.377722   2.297463   2.337887   5.749435   1.435430
     9  C    2.268664   4.216496   4.513289   4.349214   3.634966
    10  C    2.276067   2.886390   3.649147   5.649624   2.550316
    11  C    2.435638   5.848598   5.100550   2.240005   4.818286
    12  H    3.527385   5.619023   5.948998   3.792642   5.092491
    13  H    3.320751   2.805154   4.184707   6.578855   2.953312
    14  H    5.480328   8.631005   8.102516   1.219841   7.735821
    15  H    2.741272   6.281774   5.179526   2.428766   5.138653
                    6          7          8          9         10
     6  N    0.000000
     7  C    2.336999   0.000000
     8  C    4.497556   2.200477   0.000000
     9  C    2.976521   1.383751   2.225475   0.000000
    10  C    4.284229   2.248780   1.379510   1.406973   0.000000
    11  C    1.300189   1.442873   3.564898   2.575937   3.671692
    12  H    2.518241   2.272739   3.684360   1.460475   2.746229
    13  H    5.192757   3.306216   2.203618   2.243784   1.086975
    14  H    1.937444   4.270127   6.417397   4.732849   6.093519
    15  H    2.093587   2.221450   4.053557   3.509293   4.440606
                   11         12         13         14         15
    11  C    0.000000
    12  H    2.760266   0.000000
    13  H    4.702598   3.291873   0.000000
    14  H    3.137666   3.853765   6.906624   0.000000
    15  H    1.094758   3.802503   5.510175   3.567979   0.000000
 Stoichiometry    C5H4N2O4
 Framework group  C1[X(C5H4N2O4)]
 Deg. of freedom    39
 Full point group                 C1      NOp   1
 Largest Abelian subgroup         C1      NOp   1
 Largest concise Abelian subgroup C1      NOp   1
                         Standard orientation:                         
 ---------------------------------------------------------------------
 Center     Atomic      Atomic             Coordinates (Angstroms)
 Number     Number       Type             X           Y           Z
 ---------------------------------------------------------------------
      1          8           0       -0.279284   -0.674453   -0.240921
      2          8           0       -3.587392    0.498674    0.230594
      3          8           0       -2.824725   -1.585982    0.121417
      4          8           0        4.357974   -0.547370    0.152928
      5          7           0       -2.653178   -0.338502    0.069252
      6          7           0        3.142629    0.134192    0.287320
      7          6           0        0.860554    0.117072   -0.216073
      8          6           0       -1.336138    0.200788   -0.117914
      9          6           0        0.504924    1.451070   -0.122578
     10          6           0       -0.899758    1.508446   -0.066444
     11          6           0        2.151844   -0.526443   -0.234597
     12          1           0        1.757300    2.201951   -0.095790
     13          1           0       -1.526776    2.391260    0.028434
     14          1           0        5.029933    0.321828    0.683000
     15          1           0        2.292253   -1.517417   -0.678161
 ---------------------------------------------------------------------
 Rotational constants (GHZ):      3.7755864      0.4973837      0.4442496
 Standard basis: 3-21G (6D, 7F)
 There are   107 symmetry adapted cartesian basis functions of A   symmetry.
 There are   107 symmetry adapted basis functions of A   symmetry.
   107 basis functions,   177 primitive gaussians,   107 cartesian basis functions
    40 alpha electrons       40 beta electrons
       nuclear repulsion energy       568.9030514598 Hartrees.
 NAtoms=   15 NActive=   15 NUniq=   15 SFac= 1.00D+00 NAtFMM=   60 NAOKFM=F Big=F
 Integral buffers will be    131072 words long.
 Raffenetti 2 integral format.
 Two-electron integral symmetry is turned on.
 One-electron integrals computed using PRISM.
 PrsmSu:  requested number of processors reduced to:  10 ShMem   1 Linda.
 NBasis=   107 RedAO= T EigKep=  2.88D-03  NBF=   107
 NBsUse=   107 1.00D-06 EigRej= -1.00D+00 NBFU=   107
 ExpMin= 1.83D-01 ExpMax= 3.22D+02 ExpMxC= 3.22D+02 IAcc=1 IRadAn=         1 AccDes= 0.00D+00
 Harris functional with IExCor=  402 and IRadAn=       1 diagonalized for initial guess.
 HarFok:  IExCor=  402 AccDes= 0.00D+00 IRadAn=         1 IDoV= 1 UseB2=F ITyADJ=14
 ICtDFT=  3500011 ScaDFX=  1.000000  1.000000  1.000000  1.000000
 FoFCou: FMM=F IPFlag=           0 FMFlag=      100000 FMFlg1=           0
         NFxFlg=           0 DoJE=T BraDBF=F KetDBF=T FulRan=T
         wScrn=  0.000000 ICntrl=     500 IOpCl=  0 I1Cent=   200000004 NGrid=           0
         NMat0=    1 NMatS0=      1 NMatT0=    0 NMatD0=    1 NMtDS0=    0 NMtDT0=    0
 Petite list used in FoFCou.
 Keep R1 ints in memory in canonical form, NReq=17679100.
 Requested convergence on RMS density matrix=1.00D-08 within 128 cycles.
 Requested convergence on MAX density matrix=1.00D-06.
 Requested convergence on             energy=1.00D-06.
 No special actions if energy rises.
 Integral accuracy reduced to 1.0D-05 until final iterations.
 CalDSu:  requested number of processors reduced to:  17 ShMem   1 Linda.
 CalDSu:  requested number of processors reduced to:  17 ShMem   1 Linda.
 CalDSu:  requested number of processors reduced to:  17 ShMem   1 Linda.
 CalDSu:  requested number of processors reduced to:  17 ShMem   1 Linda.
 CalDSu:  requested number of processors reduced to:  17 ShMem   1 Linda.
 EnCoef did     7 forward-backward iterations
 CalDSu:  requested number of processors reduced to:  17 ShMem   1 Linda.
 CalDSu:  requested number of processors reduced to:  17 ShMem   1 Linda.
 CalDSu:  requested number of processors reduced to:  17 ShMem   1 Linda.
 CalDSu:  requested number of processors reduced to:  17 ShMem   1 Linda.
 Initial convergence to 1.0D-05 achieved.  Increase integral accuracy.
 CalDSu:  requested number of processors reduced to:  17 ShMem   1 Linda.
 CalDSu:  requested number of processors reduced to:  17 ShMem   1 Linda.
 CalDSu:  requested number of processors reduced to:  17 ShMem   1 Linda.
 CalDSu:  requested number of processors reduced to:  17 ShMem   1 Linda.
 CalDSu:  requested number of processors reduced to:  17 ShMem   1 Linda.
 CalDSu:  requested number of processors reduced to:  17 ShMem   1 Linda.
 CalDSu:  requested number of processors reduced to:  17 ShMem   1 Linda.
 CalDSu:  requested number of processors reduced to:  17 ShMem   1 Linda.
 SCF Done:  E(RB3LYP) =  -599.675455523     A.U. after   17 cycles
            NFock= 17  Conv=0.49D-08     -V/T= 2.0084

 **********************************************************************

            Population analysis using the SCF density.

 **********************************************************************

 Orbital symmetries:
       Occupied  (A) (A) (A) (A) (A) (A) (A) (A) (A) (A) (A) (A)
                 (A) (A) (A) (A) (A) (A) (A) (A) (A) (A) (A) (A)
                 (A) (A) (A) (A) (A) (A) (A) (A) (A) (A) (A) (A)
                 (A) (A) (A) (A)
       Virtual   (A) (A) (A) (A) (A) (A) (A) (A) (A) (A) (A) (A)
                 (A) (A) (A) (A) (A) (A) (A) (A) (A) (A) (A) (A)
                 (A) (A) (A) (A) (A) (A) (A) (A) (A) (A) (A) (A)
                 (A) (A) (A) (A) (A) (A) (A) (A) (A) (A) (A) (A)
                 (A) (A) (A) (A) (A) (A) (A) (A) (A) (A) (A) (A)
                 (A) (A) (A) (A) (A) (A) (A)
 The electronic state is 1-A.
 Alpha  occ. eigenvalues --  -19.16132 -19.12711 -19.06468 -19.06209 -14.48887
 Alpha  occ. eigenvalues --  -14.33695 -10.26044 -10.23314 -10.19999 -10.19230
 Alpha  occ. eigenvalues --  -10.18495  -1.22092  -1.16525  -1.10531  -1.04423
 Alpha  occ. eigenvalues --   -0.89675  -0.85950  -0.82995  -0.73389  -0.65501
 Alpha  occ. eigenvalues --   -0.60744  -0.57364  -0.55409  -0.53896  -0.53654
 Alpha  occ. eigenvalues --   -0.49577  -0.48464  -0.47701  -0.47352  -0.43987
 Alpha  occ. eigenvalues --   -0.43094  -0.42312  -0.38262  -0.32532  -0.31469
 Alpha  occ. eigenvalues --   -0.29663  -0.29293  -0.28614  -0.27591  -0.24711
 Alpha virt. eigenvalues --   -0.10095  -0.04865  -0.01816   0.00241   0.02275
 Alpha virt. eigenvalues --    0.06410   0.09171   0.12741   0.13736   0.16538
 Alpha virt. eigenvalues --    0.18896   0.20955   0.25430   0.28687   0.30073
 Alpha virt. eigenvalues --    0.34985   0.39361   0.44867   0.50135   0.65727
 Alpha virt. eigenvalues --    0.67997   0.69807   0.70155   0.72561   0.75210
 Alpha virt. eigenvalues --    0.75747   0.77149   0.78467   0.79685   0.81944
 Alpha virt. eigenvalues --    0.83802   0.84227   0.89081   0.97145   1.03648
 Alpha virt. eigenvalues --    1.05686   1.08424   1.10730   1.13209   1.13911
 Alpha virt. eigenvalues --    1.23462   1.26006   1.34747   1.36597   1.41653
 Alpha virt. eigenvalues --    1.43263   1.44248   1.47924   1.49168   1.51809
 Alpha virt. eigenvalues --    1.54570   1.56227   1.57141   1.59516   1.64782
 Alpha virt. eigenvalues --    1.68067   1.73370   1.75931   1.78358   1.94055
 Alpha virt. eigenvalues --    2.18240   2.43647   2.65943   2.84295   2.87261
 Alpha virt. eigenvalues --    2.89018   3.29341
          Condensed to atoms (all electrons):
               1          2          3          4          5          6
     1  O    8.165768   0.000298   0.000628   0.000000  -0.019177   0.000527
     2  O    0.000298   8.268900  -0.067814   0.000000   0.186276   0.000000
     3  O    0.000628  -0.067814   8.264988   0.000000   0.159425   0.000000
     4  O    0.000000   0.000000   0.000000   8.077163   0.000000   0.103385
     5  N   -0.019177   0.186276   0.159425   0.000000   6.625780   0.000000
     6  N    0.000527   0.000000   0.000000   0.103385   0.000000   6.873846
     7  C    0.272579  -0.000042   0.000122   0.003851  -0.001598  -0.082170
     8  C    0.270543  -0.092323  -0.066909   0.000000   0.036070  -0.000042
     9  C   -0.090171   0.000377  -0.000026  -0.000009   0.005060  -0.004120
    10  C   -0.077213   0.012350   0.002568   0.000000  -0.050261   0.000127
    11  C   -0.027052   0.000000   0.000001  -0.051580  -0.000044   0.416288
    12  H    0.001023   0.000000   0.000000  -0.000112  -0.000001   0.011885
    13  H    0.001556   0.003229   0.000011   0.000000  -0.002819   0.000000
    14  H    0.000000   0.000000   0.000000   0.215258   0.000000  -0.040427
    15  H   -0.000364   0.000000   0.000000   0.000967  -0.000001  -0.045061
               7          8          9         10         11         12
     1  O    0.272579   0.270543  -0.090171  -0.077213  -0.027052   0.001023
     2  O   -0.000042  -0.092323   0.000377   0.012350   0.000000   0.000000
     3  O    0.000122  -0.066909  -0.000026   0.002568   0.000001   0.000000
     4  O    0.003851   0.000000  -0.000009   0.000000  -0.051580  -0.000112
     5  N   -0.001598   0.036070   0.005060  -0.050261  -0.000044  -0.000001
     6  N   -0.082170  -0.000042  -0.004120   0.000127   0.416288   0.011885
     7  C    5.223468  -0.149867   0.326381  -0.111969   0.324219  -0.039933
     8  C   -0.149867   5.229596  -0.106987   0.262972   0.000967   0.001966
     9  C    0.326381  -0.106987   5.368868   0.371704  -0.068627   0.324962
    10  C   -0.111969   0.262972   0.371704   5.444954   0.005122  -0.002717
    11  C    0.324219   0.000967  -0.068627   0.005122   5.016176  -0.003676
    12  H   -0.039933   0.001966   0.324962  -0.002717  -0.003676   0.526962
    13  H    0.005038  -0.029573  -0.022292   0.374600  -0.000025  -0.000498
    14  H   -0.000524   0.000000   0.000017   0.000000   0.003771  -0.000086
    15  H   -0.042122   0.000001   0.003315  -0.000084   0.333627   0.000223
              13         14         15
     1  O    0.001556   0.000000  -0.000364
     2  O    0.003229   0.000000   0.000000
     3  O    0.000011   0.000000   0.000000
     4  O    0.000000   0.215258   0.000967
     5  N   -0.002819   0.000000  -0.000001
     6  N    0.000000  -0.040427  -0.045061
     7  C    0.005038  -0.000524  -0.042122
     8  C   -0.029573   0.000000   0.000001
     9  C   -0.022292   0.000017   0.003315
    10  C    0.374600   0.000000  -0.000084
    11  C   -0.000025   0.003771   0.333627
    12  H   -0.000498  -0.000086   0.000223
    13  H    0.428126   0.000000   0.000000
    14  H    0.000000   0.489295  -0.000214
    15  H    0.000000  -0.000214   0.506591
 Mulliken charges:
               1
     1  O   -0.498945
     2  O   -0.311253
     3  O   -0.292995
     4  O   -0.348922
     5  N    0.061291
     6  N   -0.234238
     7  C    0.272567
     8  C    0.643588
     9  C   -0.108451
    10  C   -0.232154
    11  C    0.050833
    12  H    0.180002
    13  H    0.242649
    14  H    0.332908
    15  H    0.243121
 Sum of Mulliken charges =   0.00000
 Mulliken charges with hydrogens summed into heavy atoms:
               1
     1  O   -0.498945
     2  O   -0.311253
     3  O   -0.292995
     4  O   -0.016014
     5  N    0.061291
     6  N   -0.234238
     7  C    0.272567
     8  C    0.643588
     9  C    0.071551
    10  C    0.010495
    11  C    0.293953
 Electronic spatial extent (au):  <R**2>=           2268.7346
 Charge=              0.0000 electrons
 Dipole moment (field-independent basis, Debye):
    X=              5.3042    Y=              2.5908    Z=             -0.1896  Tot=              5.9062
 Quadrupole moment (field-independent basis, Debye-Ang):
   XX=            -62.2444   YY=            -60.7949   ZZ=            -61.3145
   XY=              0.4218   XZ=              3.6976   YZ=              1.0412
 Traceless Quadrupole moment (field-independent basis, Debye-Ang):
   XX=             -0.7931   YY=              0.6563   ZZ=              0.1368
   XY=              0.4218   XZ=              3.6976   YZ=              1.0412
 Octapole moment (field-independent basis, Debye-Ang**2):
  XXX=            124.8950  YYY=              1.9796  ZZZ=              3.7560  XYY=              7.0400
  XXY=             27.5809  XXZ=             14.0485  XZZ=             -2.6504  YZZ=             -7.6865
  YYZ=             -0.4528  XYZ=              2.8971
 Hexadecapole moment (field-independent basis, Debye-Ang**3):
 XXXX=          -2012.3118 YYYY=           -344.8649 ZZZZ=            -67.2695 XXXY=            130.4705
 XXXZ=            134.9669 YYYX=            -21.0153 YYYZ=              4.9086 ZZZX=              2.1175
 ZZZY=              2.2366 XXYY=           -447.8775 XXZZ=           -363.6180 YYZZ=            -75.3360
 XXYZ=             14.6021 YYXZ=             -2.9651 ZZXY=              2.6543
 N-N= 5.689030514598D+02 E-N=-2.540978499200D+03  KE= 5.946619843975D+02
 PrsmSu:  requested number of processors reduced to:  10 ShMem   1 Linda.
 Calling FoFJK, ICntrl=      2127 FMM=F ISym2X=0 I1Cent= 0 IOpClX= 0 NMat=1 NMatS=1 NMatT=0.
 ***** Axes restored to original set *****
 -------------------------------------------------------------------
 Center     Atomic                   Forces (Hartrees/Bohr)
 Number     Number              X              Y              Z
 -------------------------------------------------------------------
      1        8          -0.004178380   -0.008313495    0.004819002
      2        8          -0.015006196    0.025728344   -0.008178483
      3        8           0.017247616   -0.022667322    0.002729841
      4        8           0.073334073    0.078718053    0.021301345
      5        7           0.008598280    0.004866801   -0.002349423
      6        7          -0.046966441    0.006724252   -0.008526833
      7        6           0.002172576   -0.001367511   -0.001816691
      8        6          -0.011408699    0.001444157    0.003075624
      9        6           0.101592085    0.037909430   -0.011651697
     10        6          -0.016612963    0.012620585   -0.000088666
     11        6           0.006905080    0.002461583    0.002037058
     12        1          -0.085699924   -0.046645001    0.012503610
     13        1           0.004453794   -0.008251701    0.002110716
     14        1          -0.028276479   -0.087270424   -0.017730738
     15        1          -0.006154423    0.004042247    0.001765336
 -------------------------------------------------------------------
 Cartesian Forces:  Max     0.101592085 RMS     0.032466249

 GradGradGradGradGradGradGradGradGradGradGradGradGradGradGradGradGradGrad
 Berny optimization.
 FormGI is forming the generalized inverse of G from B-inverse, IUseBI=4.
 Internal  Forces:  Max     0.096761041 RMS     0.019996170
 Search for a local minimum.
 Step number   1 out of a maximum of   73
 All quantities printed in internal units (Hartrees-Bohrs-Radians)
 Mixed Optimization -- RFO/linear search
 Second derivative matrix not updated -- first step.
 ITU=  0
     Eigenvalues ---    0.01223   0.01240   0.01296   0.01522   0.01848
     Eigenvalues ---    0.01904   0.02019   0.02024   0.02081   0.02204
     Eigenvalues ---    0.02231   0.03012   0.12420   0.15986   0.15991
     Eigenvalues ---    0.15999   0.16000   0.22000   0.22827   0.23272
     Eigenvalues ---    0.24690   0.24837   0.24973   0.25000   0.25000
     Eigenvalues ---    0.25000   0.34269   0.35165   0.39194   0.40219
     Eigenvalues ---    0.41568   0.42793   0.45641   0.46690   0.48792
     Eigenvalues ---    0.48931   0.67141   0.78009   0.79544
 RFO step:  Lambda=-8.97154403D-02 EMin= 1.22311165D-02
 Linear search not attempted -- first point.
 Maximum step size (   0.300) exceeded in Quadratic search.
    -- Step size scaled by   0.513
 Iteration  1 RMS(Cart)=  0.05591924 RMS(Int)=  0.00489313
 Iteration  2 RMS(Cart)=  0.00501860 RMS(Int)=  0.00002391
 Iteration  3 RMS(Cart)=  0.00002116 RMS(Int)=  0.00002007
 Iteration  4 RMS(Cart)=  0.00000000 RMS(Int)=  0.00002007
 Variable       Old X    -DE/DX   Delta X   Delta X   Delta X     New X
                                 (Linear)    (Quad)   (Total)
    R1        2.62282   0.00885   0.00000   0.00833   0.00833   2.63115
    R2        2.60352   0.00410   0.00000   0.00354   0.00353   2.60705
    R3        2.39007   0.02707   0.00000   0.01597   0.01597   2.40604
    R4        2.38162   0.02259   0.00000   0.01309   0.01309   2.39472
    R5        2.64538   0.04521   0.00000   0.04248   0.04248   2.68786
    R6        2.30517  -0.09257   0.00000  -0.14731  -0.14731   2.15785
    R7        2.71257  -0.01485   0.00000  -0.01549  -0.01549   2.69708
    R8        2.45700  -0.00368   0.00000  -0.00248  -0.00248   2.45452
    R9        2.61491  -0.00082   0.00000  -0.00048  -0.00048   2.61443
   R10        2.72664  -0.00257   0.00000  -0.00273  -0.00273   2.72390
   R11        2.60690  -0.00686   0.00000  -0.00638  -0.00639   2.60051
   R12        2.65879   0.00887   0.00000   0.00834   0.00835   2.66714
   R13        2.75990  -0.09676   0.00000  -0.23210  -0.23210   2.52780
   R14        2.05408  -0.00921   0.00000  -0.01070  -0.01070   2.04338
   R15        2.06879  -0.00576   0.00000  -0.00684  -0.00684   2.06195
    A1        1.84013  -0.00050   0.00000  -0.00022  -0.00024   1.83989
    A2        1.66052   0.02924   0.00000   0.06009   0.06009   1.72062
    A3        2.15240   0.02551   0.00000   0.03878   0.03872   2.19112
    A4        2.03272  -0.00957   0.00000  -0.01421  -0.01428   2.01844
    A5        2.09690  -0.01577   0.00000  -0.02357  -0.02364   2.07326
    A6        1.95591  -0.00684   0.00000  -0.01034  -0.01034   1.94557
    A7        1.91764  -0.00300   0.00000  -0.00370  -0.00371   1.91393
    A8        2.07190   0.00004   0.00000  -0.00030  -0.00030   2.07160
    A9        2.29272   0.00300   0.00000   0.00418   0.00418   2.29690
   A10        2.06781  -0.00104   0.00000  -0.00111  -0.00111   2.06670
   A11        1.94214   0.00248   0.00000   0.00329   0.00327   1.94541
   A12        2.26726  -0.00129   0.00000  -0.00148  -0.00148   2.26578
   A13        1.87402   0.00158   0.00000   0.00272   0.00271   1.87673
   A14        1.85095   0.02359   0.00000   0.04875   0.04875   1.89970
   A15        2.55787  -0.02518   0.00000  -0.05150  -0.05150   2.50637
   A16        1.85008  -0.00045   0.00000  -0.00161  -0.00164   1.84845
   A17        2.20267  -0.00259   0.00000  -0.00491  -0.00492   2.19774
   A18        2.23003   0.00310   0.00000   0.00679   0.00678   2.23681
   A19        2.03780   0.00762   0.00000   0.01262   0.01262   2.05041
   A20        2.12333   0.00086   0.00000   0.00326   0.00326   2.12659
   A21        2.12198  -0.00849   0.00000  -0.01594  -0.01594   2.10604
    D1       -0.03230   0.00175   0.00000   0.00819   0.00816  -0.02414
    D2        3.06831   0.00266   0.00000   0.01239   0.01235   3.08066
    D3       -2.99771  -0.00381   0.00000  -0.01807  -0.01808  -3.01579
    D4        0.03811  -0.00255   0.00000  -0.01198  -0.01199   0.02612
    D5        3.11089   0.00188   0.00000   0.00940   0.00940   3.12030
    D6        3.09437   0.00302   0.00000   0.01453   0.01452   3.10890
    D7        0.08138   0.00122   0.00000   0.00679   0.00680   0.08818
    D8        0.00302  -0.00149   0.00000  -0.00813  -0.00814  -0.00512
    D9       -3.00998  -0.00329   0.00000  -0.01588  -0.01587  -3.02584
   D10       -3.08552  -0.00030   0.00000  -0.00115  -0.00113  -3.08665
   D11        0.04289  -0.00135   0.00000  -0.00594  -0.00595   0.03693
   D12        0.01532  -0.00023   0.00000  -0.00150  -0.00150   0.01382
   D13        3.13655  -0.00110   0.00000  -0.00342  -0.00343   3.13312
   D14       -3.07838  -0.00116   0.00000  -0.00622  -0.00623  -3.08461
   D15        0.04285  -0.00204   0.00000  -0.00814  -0.00816   0.03469
   D16       -2.69548  -0.00380   0.00000  -0.01870  -0.01870  -2.71418
   D17        0.45930  -0.00283   0.00000  -0.01407  -0.01409   0.44521
   D18        0.39476  -0.00285   0.00000  -0.01370  -0.01368   0.38108
   D19       -2.73365  -0.00188   0.00000  -0.00907  -0.00907  -2.74272
   D20       -0.02917   0.00246   0.00000   0.01121   0.01120  -0.01797
   D21        3.14117   0.00029   0.00000   0.00166   0.00170  -3.14032
   D22        2.99116   0.00397   0.00000   0.01828   0.01826   3.00942
   D23       -0.12169   0.00180   0.00000   0.00873   0.00876  -0.11293
   D24        0.00808  -0.00135   0.00000  -0.00579  -0.00578   0.00229
   D25        3.12033   0.00073   0.00000   0.00369   0.00374   3.12407
   D26       -3.09801  -0.00142   0.00000  -0.00571  -0.00574  -3.10375
   D27        0.01424   0.00066   0.00000   0.00377   0.00378   0.01802
         Item               Value     Threshold  Converged?
 Maximum Force            0.096761     0.000450     NO 
 RMS     Force            0.019996     0.000300     NO 
 Maximum Displacement     0.284504     0.001800     NO 
 RMS     Displacement     0.056940     0.001200     NO 
 Predicted change in Energy=-3.839324D-02
 GradGradGradGradGradGradGradGradGradGradGradGradGradGradGradGradGradGrad

                          Input orientation:                          
 ---------------------------------------------------------------------
 Center     Atomic      Atomic             Coordinates (Angstroms)
 Number     Number       Type             X           Y           Z
 ---------------------------------------------------------------------
      1          8           0        4.601660    5.167685   -2.777274
      2          8           0        1.143004    5.901668   -2.655951
      3          8           0        2.252981    3.998632   -2.156778
      4          8           0        9.177815    6.076887   -2.588263
      5          7           0        2.200706    5.199808   -2.557168
      6          7           0        7.859812    6.610555   -2.622375
      7          6           0        5.605965    6.102206   -3.015311
      8          6           0        3.416651    5.863105   -2.901424
      9          6           0        5.039426    7.329849   -3.308551
     10          6           0        3.637894    7.178925   -3.238180
     11          6           0        6.980701    5.690097   -2.881225
     12          1           0        6.017427    8.216725   -3.523674
     13          1           0        2.876364    7.930864   -3.392760
     14          1           0        9.747664    7.043520   -2.376611
     15          1           0        7.263401    4.644263   -3.011206
 ---------------------------------------------------------------------
                    Distance matrix (angstroms):
                    1          2          3          4          5
     1  O    0.000000
     2  O    3.537761   0.000000
     3  O    2.695922   2.258931   0.000000
     4  O    4.669428   8.037006   7.242834   0.000000
     5  N    2.411236   1.273224   1.267229   7.032089   0.000000
     6  N    3.566710   6.754196   6.202860   1.422356   5.832661
     7  C    1.392343   4.481895   4.050260   3.597377   3.552465
     8  C    1.379591   2.287185   2.320535   5.773628   1.427234
     9  C    2.269107   4.200916   4.493091   4.383490   3.627669
    10  C    2.277360   2.862665   3.633411   5.685737   2.538935
    11  C    2.437941   5.845872   5.073186   2.250054   4.815989
    12  H    3.443567   5.465568   5.816508   3.929625   4.960169
    13  H    3.315211   2.768585   4.168777   6.617607   2.934858
    14  H    5.491870   8.684586   8.092586   1.141886   7.771000
    15  H    2.722785   6.258317   5.123592   2.428224   5.113283
                    6          7          8          9         10
     6  N    0.000000
     7  C    2.343639   0.000000
     8  C    4.514226   2.205275   0.000000
     9  C    2.990451   1.383497   2.224970   0.000000
    10  C    4.304283   2.254396   1.376131   1.411391   0.000000
    11  C    1.298877   1.441427   3.568304   2.576809   3.676736
    12  H    2.605093   2.213352   3.562409   1.337652   2.611650
    13  H    5.212625   3.307141   2.192931   2.246585   1.081311
    14  H    1.952394   4.295076   6.461466   4.808118   6.171704
    15  H    2.091220   2.207421   4.036721   3.499550   4.429485
                   11         12         13         14         15
    11  C    0.000000
    12  H    2.779297   0.000000
    13  H    4.704071   3.156759   0.000000
    14  H    3.121293   4.075148   7.002478   0.000000
    15  H    1.091138   3.818058   5.494854   3.511511   0.000000
 Stoichiometry    C5H4N2O4
 Framework group  C1[X(C5H4N2O4)]
 Deg. of freedom    39
 Full point group                 C1      NOp   1
 Largest Abelian subgroup         C1      NOp   1
 Largest concise Abelian subgroup C1      NOp   1
                         Standard orientation:                         
 ---------------------------------------------------------------------
 Center     Atomic      Atomic             Coordinates (Angstroms)
 Number     Number       Type             X           Y           Z
 ---------------------------------------------------------------------
      1          8           0       -0.279437   -0.675283   -0.208453
      2          8           0       -3.591787    0.499280    0.197126
      3          8           0       -2.788284   -1.610022    0.107688
      4          8           0        4.376310   -0.548459    0.125455
      5          7           0       -2.652758   -0.350707    0.067337
      6          7           0        3.153555    0.162523    0.275352
      7          6           0        0.857588    0.128194   -0.193689
      8          6           0       -1.344768    0.194761   -0.101852
      9          6           0        0.486467    1.458472   -0.111887
     10          6           0       -0.923044    1.503837   -0.054917
     11          6           0        2.152515   -0.504613   -0.214476
     12          1           0        1.589918    2.214213   -0.088126
     13          1           0       -1.560670    2.373123    0.028794
     14          1           0        5.079453    0.221825    0.590382
     15          1           0        2.278749   -1.499903   -0.643480
 ---------------------------------------------------------------------
 Rotational constants (GHZ):      3.7758600      0.4973512      0.4432894
 Standard basis: 3-21G (6D, 7F)
 There are   107 symmetry adapted cartesian basis functions of A   symmetry.
 There are   107 symmetry adapted basis functions of A   symmetry.
   107 basis functions,   177 primitive gaussians,   107 cartesian basis functions
    40 alpha electrons       40 beta electrons
       nuclear repulsion energy       568.8562546795 Hartrees.
 NAtoms=   15 NActive=   15 NUniq=   15 SFac= 1.00D+00 NAtFMM=   60 NAOKFM=F Big=F
 Integral buffers will be    131072 words long.
 Raffenetti 2 integral format.
 Two-electron integral symmetry is turned on.
 One-electron integrals computed using PRISM.
 PrsmSu:  requested number of processors reduced to:  10 ShMem   1 Linda.
 NBasis=   107 RedAO= T EigKep=  2.74D-03  NBF=   107
 NBsUse=   107 1.00D-06 EigRej= -1.00D+00 NBFU=   107
 Initial guess from the checkpoint file:  "/tmp/scratch/63911.prometeo/Gau-19971.chk"
 B after Tr=     0.000000    0.000000    0.000000
         Rot=    0.999997   -0.001224   -0.000291   -0.002282 Ang=  -0.30 deg.
 ExpMin= 1.83D-01 ExpMax= 3.22D+02 ExpMxC= 3.22D+02 IAcc=1 IRadAn=         1 AccDes= 0.00D+00
 Harris functional with IExCor=  402 and IRadAn=       1 diagonalized for initial guess.
 HarFok:  IExCor=  402 AccDes= 0.00D+00 IRadAn=         1 IDoV= 1 UseB2=F ITyADJ=14
 ICtDFT=  3500011 ScaDFX=  1.000000  1.000000  1.000000  1.000000
 FoFCou: FMM=F IPFlag=           0 FMFlag=      100000 FMFlg1=           0
         NFxFlg=           0 DoJE=T BraDBF=F KetDBF=T FulRan=T
         wScrn=  0.000000 ICntrl=     500 IOpCl=  0 I1Cent=   200000004 NGrid=           0
         NMat0=    1 NMatS0=      1 NMatT0=    0 NMatD0=    1 NMtDS0=    0 NMtDT0=    0
 Petite list used in FoFCou.
 Keep R1 ints in memory in canonical form, NReq=17679100.
 Requested convergence on RMS density matrix=1.00D-08 within 128 cycles.
 Requested convergence on MAX density matrix=1.00D-06.
 Requested convergence on             energy=1.00D-06.
 No special actions if energy rises.
 Integral accuracy reduced to 1.0D-05 until final iterations.
 CalDSu:  requested number of processors reduced to:  17 ShMem   1 Linda.
 CalDSu:  requested number of processors reduced to:  17 ShMem   1 Linda.
 CalDSu:  requested number of processors reduced to:  17 ShMem   1 Linda.
 CalDSu:  requested number of processors reduced to:  17 ShMem   1 Linda.
 CalDSu:  requested number of processors reduced to:  17 ShMem   1 Linda.
 CalDSu:  requested number of processors reduced to:  17 ShMem   1 Linda.
 CalDSu:  requested number of processors reduced to:  17 ShMem   1 Linda.
 Initial convergence to 1.0D-05 achieved.  Increase integral accuracy.
 CalDSu:  requested number of processors reduced to:  17 ShMem   1 Linda.
 CalDSu:  requested number of processors reduced to:  17 ShMem   1 Linda.
 CalDSu:  requested number of processors reduced to:  17 ShMem   1 Linda.
 CalDSu:  requested number of processors reduced to:  17 ShMem   1 Linda.
 CalDSu:  requested number of processors reduced to:  17 ShMem   1 Linda.
 CalDSu:  requested number of processors reduced to:  17 ShMem   1 Linda.
 CalDSu:  requested number of processors reduced to:  17 ShMem   1 Linda.
 CalDSu:  requested number of processors reduced to:  17 ShMem   1 Linda.
 SCF Done:  E(RB3LYP) =  -599.717931179     A.U. after   15 cycles
            NFock= 15  Conv=0.86D-08     -V/T= 2.0084
 PrsmSu:  requested number of processors reduced to:  10 ShMem   1 Linda.
 Calling FoFJK, ICntrl=      2127 FMM=F ISym2X=0 I1Cent= 0 IOpClX= 0 NMat=1 NMatS=1 NMatT=0.
 ***** Axes restored to original set *****
 -------------------------------------------------------------------
 Center     Atomic                   Forces (Hartrees/Bohr)
 Number     Number              X              Y              Z
 -------------------------------------------------------------------
      1        8          -0.002392725   -0.006149288    0.003020105
      2        8          -0.010925823    0.014170537   -0.004380869
      3        8           0.008546419   -0.013773842    0.002179268
      4        8           0.056695003    0.058179284    0.014667691
      5        7           0.009069376    0.004190832   -0.004106102
      6        7          -0.028259629    0.007709971   -0.005664109
      7        6          -0.002729176   -0.001841569   -0.000672681
      8        6          -0.007118081    0.001422421    0.003772888
      9        6           0.091588615    0.040499300   -0.010564279
     10        6          -0.009360661    0.009109908   -0.001198047
     11        6           0.007846825    0.001889307    0.001457821
     12        1          -0.077707297   -0.045511886    0.011597032
     13        1           0.002499172   -0.004915412    0.001536919
     14        1          -0.033123334   -0.066999048   -0.013363060
     15        1          -0.004628684    0.002019486    0.001717425
 -------------------------------------------------------------------
 Cartesian Forces:  Max     0.091588615 RMS     0.027083621

 GradGradGradGradGradGradGradGradGradGradGradGradGradGradGradGradGradGrad
 Berny optimization.
 Using GEDIIS/GDIIS optimizer.
 FormGI is forming the generalized inverse of G from B-inverse, IUseBI=4.
 Internal  Forces:  Max     0.088854060 RMS     0.016291915
 Search for a local minimum.
 Step number   2 out of a maximum of   73
 All quantities printed in internal units (Hartrees-Bohrs-Radians)
 Mixed Optimization -- RFO/linear search
 Update second derivatives using D2CorX and points    1    2
 DE= -4.25D-02 DEPred=-3.84D-02 R= 1.11D+00
 TightC=F SS=  1.41D+00  RLast= 3.05D-01 DXNew= 5.0454D-01 9.1454D-01
 Trust test= 1.11D+00 RLast= 3.05D-01 DXMaxT set to 5.05D-01
 ITU=  1  0
 Use linear search instead of GDIIS.
 Linear search step of   0.600 exceeds DXMaxT=   0.505 but not scaled.
 Quartic linear search produced a step of  2.00000.
 Iteration  1 RMS(Cart)=  0.09552988 RMS(Int)=  0.03901812
 Iteration  2 RMS(Cart)=  0.02867095 RMS(Int)=  0.01036500
 Iteration  3 RMS(Cart)=  0.00997853 RMS(Int)=  0.00013120
 Iteration  4 RMS(Cart)=  0.00000514 RMS(Int)=  0.00013111
 Iteration  5 RMS(Cart)=  0.00000000 RMS(Int)=  0.00013111
 Variable       Old X    -DE/DX   Delta X   Delta X   Delta X     New X
                                 (Linear)    (Quad)   (Total)
    R1        2.63115   0.00561   0.01666   0.00000   0.01666   2.64781
    R2        2.60705   0.00203   0.00706   0.00000   0.00704   2.61409
    R3        2.40604   0.01723   0.03194   0.00000   0.03194   2.43798
    R4        2.39472   0.01410   0.02619   0.00000   0.02619   2.42090
    R5        2.68786   0.02518   0.08496   0.00000   0.08496   2.77283
    R6        2.15785  -0.07572  -0.29463   0.00000  -0.29463   1.86322
    R7        2.69708  -0.00935  -0.03098   0.00000  -0.03098   2.66610
    R8        2.45452  -0.00483  -0.00496   0.00000  -0.00496   2.44957
    R9        2.61443  -0.00031  -0.00096   0.00000  -0.00094   2.61349
   R10        2.72390  -0.00231  -0.00547   0.00000  -0.00547   2.71844
   R11        2.60051  -0.00427  -0.01277   0.00000  -0.01279   2.58772
   R12        2.66714   0.00524   0.01669   0.00000   0.01671   2.68385
   R13        2.52780  -0.08885  -0.46420   0.00000  -0.46420   2.06359
   R14        2.04338  -0.00540  -0.02141   0.00000  -0.02141   2.02198
   R15        2.06195  -0.00334  -0.01368   0.00000  -0.01368   2.04827
    A1        1.83989  -0.00099  -0.00048   0.00000  -0.00060   1.83929
    A2        1.72062   0.01184   0.12019   0.00000   0.12019   1.84080
    A3        2.19112   0.01168   0.07743   0.00000   0.07697   2.26808
    A4        2.01844  -0.00378  -0.02856   0.00000  -0.02903   1.98942
    A5        2.07326  -0.00784  -0.04727   0.00000  -0.04774   2.02552
    A6        1.94557  -0.00969  -0.02068   0.00000  -0.02068   1.92489
    A7        1.91393  -0.00063  -0.00742   0.00000  -0.00748   1.90645
    A8        2.07160  -0.00130  -0.00059   0.00000  -0.00059   2.07101
    A9        2.29690   0.00196   0.00836   0.00000   0.00837   2.30527
   A10        2.06670  -0.00072  -0.00222   0.00000  -0.00222   2.06447
   A11        1.94541   0.00144   0.00654   0.00000   0.00641   1.95182
   A12        2.26578  -0.00057  -0.00295   0.00000  -0.00295   2.26282
   A13        1.87673  -0.00052   0.00543   0.00000   0.00540   1.88213
   A14        1.89970   0.02383   0.09751   0.00000   0.09752   1.99722
   A15        2.50637  -0.02332  -0.10300   0.00000  -0.10299   2.40339
   A16        1.84845   0.00074  -0.00327   0.00000  -0.00342   1.84503
   A17        2.19774  -0.00227  -0.00985   0.00000  -0.00991   2.18784
   A18        2.23681   0.00156   0.01357   0.00000   0.01351   2.25032
   A19        2.05041   0.00473   0.02524   0.00000   0.02522   2.07563
   A20        2.12659   0.00137   0.00652   0.00000   0.00650   2.13309
   A21        2.10604  -0.00611  -0.03188   0.00000  -0.03190   2.07414
    D1       -0.02414   0.00127   0.01633   0.00000   0.01616  -0.00799
    D2        3.08066   0.00209   0.02470   0.00000   0.02447   3.10513
    D3       -3.01579  -0.00330  -0.03616   0.00000  -0.03622  -3.05201
    D4        0.02612  -0.00188  -0.02398   0.00000  -0.02405   0.00208
    D5        3.12030   0.00150   0.01881   0.00000   0.01881   3.13910
    D6        3.10890   0.00201   0.02904   0.00000   0.02897   3.13787
    D7        0.08818   0.00015   0.01360   0.00000   0.01366   0.10184
    D8       -0.00512  -0.00051  -0.01629   0.00000  -0.01635  -0.02147
    D9       -3.02584  -0.00237  -0.03173   0.00000  -0.03166  -3.05751
   D10       -3.08665  -0.00029  -0.00226   0.00000  -0.00216  -3.08880
   D11        0.03693  -0.00098  -0.01191   0.00000  -0.01201   0.02493
   D12        0.01382  -0.00021  -0.00300   0.00000  -0.00300   0.01082
   D13        3.13312  -0.00075  -0.00685   0.00000  -0.00689   3.12623
   D14       -3.08461  -0.00106  -0.01246   0.00000  -0.01249  -3.09711
   D15        0.03469  -0.00160  -0.01631   0.00000  -0.01639   0.01830
   D16       -2.71418  -0.00336  -0.03740   0.00000  -0.03739  -2.75156
   D17        0.44521  -0.00275  -0.02818   0.00000  -0.02827   0.41694
   D18        0.38108  -0.00242  -0.02736   0.00000  -0.02727   0.35380
   D19       -2.74272  -0.00181  -0.01814   0.00000  -0.01815  -2.76088
   D20       -0.01797   0.00175   0.02240   0.00000   0.02235   0.00438
   D21       -3.14032   0.00004   0.00340   0.00000   0.00361  -3.13671
   D22        3.00942   0.00340   0.03652   0.00000   0.03644   3.04586
   D23       -0.11293   0.00168   0.01752   0.00000   0.01770  -0.09523
   D24        0.00229  -0.00093  -0.01157   0.00000  -0.01152  -0.00923
   D25        3.12407   0.00078   0.00748   0.00000   0.00777   3.13184
   D26       -3.10375  -0.00149  -0.01148   0.00000  -0.01164  -3.11540
   D27        0.01802   0.00022   0.00757   0.00000   0.00764   0.02567
         Item               Value     Threshold  Converged?
 Maximum Force            0.088854     0.000450     NO 
 RMS     Force            0.016292     0.000300     NO 
 Maximum Displacement     0.531211     0.001800     NO 
 RMS     Displacement     0.108717     0.001200     NO 
 Predicted change in Energy=-6.088813D-02
 GradGradGradGradGradGradGradGradGradGradGradGradGradGradGradGradGradGrad

                          Input orientation:                          
 ---------------------------------------------------------------------
 Center     Atomic      Atomic             Coordinates (Angstroms)
 Number     Number       Type             X           Y           Z
 ---------------------------------------------------------------------
      1          8           0        4.616026    5.203575   -2.719895
      2          8           0        1.158418    5.911147   -2.757520
      3          8           0        2.344611    3.986811   -2.193526
      4          8           0        9.228915    6.062416   -2.601590
      5          7           0        2.221453    5.202126   -2.579562
      6          7           0        7.891718    6.665274   -2.640139
      7          6           0        5.617005    6.149765   -2.976834
      8          6           0        3.420681    5.880266   -2.883621
      9          6           0        5.028716    7.359863   -3.296633
     10          6           0        3.620262    7.190084   -3.229601
     11          6           0        6.992958    5.752900   -2.840337
     12          1           0        5.736322    8.166546   -3.499196
     13          1           0        2.847256    7.908845   -3.404840
     14          1           0        9.851100    6.812074   -2.449781
     15          1           0        7.246030    4.703099   -2.933675
 ---------------------------------------------------------------------
                    Distance matrix (angstroms):
                    1          2          3          4          5
     1  O    0.000000
     2  O    3.529465   0.000000
     3  O    2.630002   2.329853   0.000000
     4  O    4.693650   8.073420   7.201965   0.000000
     5  N    2.398682   1.290125   1.281087   7.060107   0.000000
     6  N    3.587908   6.776416   6.176085   1.467316   5.856311
     7  C    1.401161   4.470351   4.000064   3.632400   3.547622
     8  C    1.383317   2.265986   2.284586   5.817929   1.410842
     9  C    2.269915   4.167568   4.449578   4.450632   3.612581
    10  C    2.279816   2.814110   3.600236   5.755260   2.516186
    11  C    2.442554   5.837273   5.014436   2.269869   4.810262
    12  H    3.262142   5.156948   5.538833   4.175077   4.689117
    13  H    3.303964   2.694809   4.135492   6.691792   2.898110
    14  H    5.483269   8.744661   8.024660   0.985975   7.798737
    15  H    2.685722   6.208819   5.008473   2.426903   5.061699
                    6          7          8          9         10
     6  N    0.000000
     7  C    2.356572   0.000000
     8  C    4.545953   2.214759   0.000000
     9  C    3.018315   1.383001   2.223862   0.000000
    10  C    4.343758   2.265643   1.369364   1.420232   0.000000
    11  C    1.296254   1.438534   3.574809   2.578524   3.686747
    12  H    2.763609   2.086745   3.311828   1.092006   2.346033
    13  H    5.251460   3.308936   2.171548   2.252078   1.069984
    14  H    1.974073   4.317870   6.512048   4.926726   6.290815
    15  H    2.086434   2.179089   4.002689   3.479456   4.406684
                   11         12         13         14         15
    11  C    0.000000
    12  H    2.799807   0.000000
    13  H    4.706762   2.902071   0.000000
    14  H    3.073005   4.457272   7.153243   0.000000
    15  H    1.083900   3.820275   5.463334   3.386491   0.000000
 Stoichiometry    C5H4N2O4
 Framework group  C1[X(C5H4N2O4)]
 Deg. of freedom    39
 Full point group                 C1      NOp   1
 Largest Abelian subgroup         C1      NOp   1
 Largest concise Abelian subgroup C1      NOp   1
                         Standard orientation:                         
 ---------------------------------------------------------------------
 Center     Atomic      Atomic             Coordinates (Angstroms)
 Number     Number       Type             X           Y           Z
 ---------------------------------------------------------------------
      1          8           0       -0.278981   -0.675179   -0.143723
      2          8           0       -3.596868    0.497202    0.128800
      3          8           0       -2.708701   -1.656209    0.081993
      4          8           0        4.407993   -0.551263    0.073704
      5          7           0       -2.649946   -0.376600    0.063758
      6          7           0        3.172821    0.220864    0.250302
      7          6           0        0.851468    0.152651   -0.149821
      8          6           0       -1.361657    0.182712   -0.070239
      9          6           0        0.448509    1.474375   -0.091837
     10          6           0       -0.970361    1.494450   -0.032982
     11          6           0        2.153702   -0.458034   -0.174869
     12          1           0        1.267853    2.196126   -0.076765
     13          1           0       -1.628956    2.335480    0.028549
     14          1           0        5.130454    0.026730    0.414469
     15          1           0        2.253023   -1.461513   -0.572369
 ---------------------------------------------------------------------
 Rotational constants (GHZ):      3.7655781      0.4980921      0.4422437
 Standard basis: 3-21G (6D, 7F)
 There are   107 symmetry adapted cartesian basis functions of A   symmetry.
 There are   107 symmetry adapted basis functions of A   symmetry.
   107 basis functions,   177 primitive gaussians,   107 cartesian basis functions
    40 alpha electrons       40 beta electrons
       nuclear repulsion energy       569.3918338656 Hartrees.
 NAtoms=   15 NActive=   15 NUniq=   15 SFac= 1.00D+00 NAtFMM=   60 NAOKFM=F Big=F
 Integral buffers will be    131072 words long.
 Raffenetti 2 integral format.
 Two-electron integral symmetry is turned on.
 One-electron integrals computed using PRISM.
 PrsmSu:  requested number of processors reduced to:  10 ShMem   1 Linda.
 NBasis=   107 RedAO= T EigKep=  2.51D-03  NBF=   107
 NBsUse=   107 1.00D-06 EigRej= -1.00D+00 NBFU=   107
 Initial guess from the checkpoint file:  "/tmp/scratch/63911.prometeo/Gau-19971.chk"
 B after Tr=     0.000000    0.000000    0.000000
         Rot=    0.999987   -0.001991   -0.000438   -0.004702 Ang=  -0.59 deg.
 ExpMin= 1.83D-01 ExpMax= 3.22D+02 ExpMxC= 3.22D+02 IAcc=1 IRadAn=         1 AccDes= 0.00D+00
 Harris functional with IExCor=  402 and IRadAn=       1 diagonalized for initial guess.
 HarFok:  IExCor=  402 AccDes= 0.00D+00 IRadAn=         1 IDoV= 1 UseB2=F ITyADJ=14
 ICtDFT=  3500011 ScaDFX=  1.000000  1.000000  1.000000  1.000000
 FoFCou: FMM=F IPFlag=           0 FMFlag=      100000 FMFlg1=           0
         NFxFlg=           0 DoJE=T BraDBF=F KetDBF=T FulRan=T
         wScrn=  0.000000 ICntrl=     500 IOpCl=  0 I1Cent=   200000004 NGrid=           0
         NMat0=    1 NMatS0=      1 NMatT0=    0 NMatD0=    1 NMtDS0=    0 NMtDT0=    0
 Petite list used in FoFCou.
 Keep R1 ints in memory in canonical form, NReq=17679100.
 Requested convergence on RMS density matrix=1.00D-08 within 128 cycles.
 Requested convergence on MAX density matrix=1.00D-06.
 Requested convergence on             energy=1.00D-06.
 No special actions if energy rises.
 Integral accuracy reduced to 1.0D-05 until final iterations.
 CalDSu:  requested number of processors reduced to:  17 ShMem   1 Linda.
 CalDSu:  requested number of processors reduced to:  17 ShMem   1 Linda.
 CalDSu:  requested number of processors reduced to:  17 ShMem   1 Linda.
 CalDSu:  requested number of processors reduced to:  17 ShMem   1 Linda.
 CalDSu:  requested number of processors reduced to:  17 ShMem   1 Linda.
 CalDSu:  requested number of processors reduced to:  17 ShMem   1 Linda.
 CalDSu:  requested number of processors reduced to:  17 ShMem   1 Linda.
 Initial convergence to 1.0D-05 achieved.  Increase integral accuracy.
 CalDSu:  requested number of processors reduced to:  17 ShMem   1 Linda.
 CalDSu:  requested number of processors reduced to:  17 ShMem   1 Linda.
 CalDSu:  requested number of processors reduced to:  17 ShMem   1 Linda.
 CalDSu:  requested number of processors reduced to:  17 ShMem   1 Linda.
 CalDSu:  requested number of processors reduced to:  17 ShMem   1 Linda.
 CalDSu:  requested number of processors reduced to:  17 ShMem   1 Linda.
 CalDSu:  requested number of processors reduced to:  17 ShMem   1 Linda.
 CalDSu:  requested number of processors reduced to:  17 ShMem   1 Linda.
 CalDSu:  requested number of processors reduced to:  17 ShMem   1 Linda.
 SCF Done:  E(RB3LYP) =  -599.764119973     A.U. after   16 cycles
            NFock= 16  Conv=0.77D-08     -V/T= 2.0080
 PrsmSu:  requested number of processors reduced to:  10 ShMem   1 Linda.
 Calling FoFJK, ICntrl=      2127 FMM=F ISym2X=0 I1Cent= 0 IOpClX= 0 NMat=1 NMatS=1 NMatT=0.
 ***** Axes restored to original set *****
 -------------------------------------------------------------------
 Center     Atomic                   Forces (Hartrees/Bohr)
 Number     Number              X              Y              Z
 -------------------------------------------------------------------
      1        8           0.001479639   -0.001800936   -0.000650709
      2        8          -0.005427768   -0.005474312    0.003210966
      3        8          -0.008643919   -0.001169885    0.001487075
      4        8          -0.011798668   -0.019064514   -0.003797066
      5        7           0.011221020    0.003125964   -0.008122557
      6        7           0.004631441    0.007705260   -0.001426746
      7        6          -0.011863068   -0.001600555    0.001135466
      8        6           0.001716683    0.002184879    0.005475523
      9        6           0.029798898   -0.002168806    0.002775546
     10        6           0.005631670    0.001422694   -0.002422843
     11        6           0.009303294    0.000367247    0.000385782
     12        1          -0.020078918    0.004666672   -0.001814181
     13        1          -0.002009678    0.001885898   -0.000011822
     14        1          -0.002511976    0.012177473    0.001839590
     15        1          -0.001448649   -0.002257080    0.001935977
 -------------------------------------------------------------------
 Cartesian Forces:  Max     0.029798898 RMS     0.007844823

 GradGradGradGradGradGradGradGradGradGradGradGradGradGradGradGradGradGrad
 Berny optimization.
 Using GEDIIS/GDIIS optimizer.
 FormGI is forming the generalized inverse of G from B-inverse, IUseBI=4.
 Internal  Forces:  Max     0.021457313 RMS     0.005733112
 Search for a local minimum.
 Step number   3 out of a maximum of   73
 All quantities printed in internal units (Hartrees-Bohrs-Radians)
 Mixed Optimization -- RFO/linear search
 Update second derivatives using D2CorX and points    2    3
 ITU=  0  1  0
 Use linear search instead of GDIIS.
     Eigenvalues ---    0.01223   0.01230   0.01297   0.01521   0.01835
     Eigenvalues ---    0.01900   0.02031   0.02044   0.02099   0.02201
     Eigenvalues ---    0.02233   0.03012   0.13562   0.15167   0.15997
     Eigenvalues ---    0.16000   0.16910   0.21981   0.22747   0.23988
     Eigenvalues ---    0.24707   0.24859   0.24890   0.24987   0.25000
     Eigenvalues ---    0.28112   0.34270   0.35168   0.39187   0.40186
     Eigenvalues ---    0.41566   0.42847   0.44887   0.46641   0.48790
     Eigenvalues ---    0.48945   0.67145   0.77272   0.79257
 RFO step:  Lambda=-1.14929806D-02 EMin= 1.22308750D-02
 Quartic linear search produced a step of  0.01433.
 Iteration  1 RMS(Cart)=  0.07436988 RMS(Int)=  0.00336955
 Iteration  2 RMS(Cart)=  0.00414800 RMS(Int)=  0.00055999
 Iteration  3 RMS(Cart)=  0.00001349 RMS(Int)=  0.00055987
 Iteration  4 RMS(Cart)=  0.00000002 RMS(Int)=  0.00055987
 Variable       Old X    -DE/DX   Delta X   Delta X   Delta X     New X
                                 (Linear)    (Quad)   (Total)
    R1        2.64781  -0.00059   0.00024  -0.00038  -0.00019   2.64762
    R2        2.61409  -0.00180   0.00010  -0.00359  -0.00346   2.61062
    R3        2.43798   0.00102   0.00046   0.00285   0.00331   2.44129
    R4        2.42090   0.00073   0.00038   0.00219   0.00257   2.42347
    R5        2.77283  -0.01027   0.00122  -0.01809  -0.01687   2.75595
    R6        1.86322   0.00796  -0.00422   0.02116   0.01694   1.88016
    R7        2.66610   0.00338  -0.00044   0.00681   0.00636   2.67247
    R8        2.44957  -0.00665  -0.00007  -0.01002  -0.01009   2.43948
    R9        2.61349  -0.00003  -0.00001   0.00027   0.00021   2.61370
   R10        2.71844  -0.00155  -0.00008  -0.00411  -0.00419   2.71424
   R11        2.58772   0.00144  -0.00018   0.00201   0.00188   2.58961
   R12        2.68385  -0.00120   0.00024  -0.00165  -0.00139   2.68246
   R13        2.06359  -0.00923  -0.00665  -0.08197  -0.08863   1.97496
   R14        2.02198   0.00272  -0.00031   0.00657   0.00627   2.02824
   R15        2.04827   0.00168  -0.00020   0.00416   0.00396   2.05224
    A1        1.83929  -0.00159  -0.00001  -0.00719  -0.00707   1.83222
    A2        1.84080  -0.01811   0.00172  -0.10169  -0.09997   1.74083
    A3        2.26808  -0.01379   0.00110  -0.04927  -0.04931   2.21878
    A4        1.98942   0.00629  -0.00042   0.02342   0.02187   2.01129
    A5        2.02552   0.00753  -0.00068   0.02741   0.02558   2.05110
    A6        1.92489  -0.01590  -0.00030  -0.06193  -0.06222   1.86267
    A7        1.90645   0.00425  -0.00011   0.01686   0.01666   1.92311
    A8        2.07101  -0.00415  -0.00001  -0.01605  -0.01618   2.05483
    A9        2.30527  -0.00008   0.00012  -0.00002  -0.00003   2.30524
   A10        2.06447   0.00022  -0.00003   0.00271   0.00209   2.06656
   A11        1.95182  -0.00120   0.00009  -0.00411  -0.00432   1.94750
   A12        2.26282   0.00113  -0.00004   0.00624   0.00563   2.26845
   A13        1.88213  -0.00476   0.00008  -0.01931  -0.01923   1.86290
   A14        1.99722   0.02146   0.00140   0.12529   0.12656   2.12378
   A15        2.40339  -0.01668  -0.00148  -0.10527  -0.10690   2.29649
   A16        1.84503   0.00330  -0.00005   0.01383   0.01389   1.85892
   A17        2.18784  -0.00173  -0.00014  -0.00779  -0.00810   2.17974
   A18        2.25032  -0.00157   0.00019  -0.00604  -0.00605   2.24427
   A19        2.07563  -0.00060   0.00036  -0.00157  -0.00121   2.07442
   A20        2.13309   0.00192   0.00009   0.01093   0.01103   2.14411
   A21        2.07414  -0.00132  -0.00046  -0.00940  -0.00986   2.06428
    D1       -0.00799   0.00047   0.00023   0.01516   0.01576   0.00777
    D2        3.10513   0.00119   0.00035   0.03993   0.04094  -3.13711
    D3       -3.05201  -0.00224  -0.00052  -0.06823  -0.06851  -3.12052
    D4        0.00208  -0.00056  -0.00034  -0.01606  -0.01657  -0.01449
    D5        3.13910   0.00083   0.00027   0.03304   0.03331  -3.11077
    D6        3.13787  -0.00026   0.00042  -0.02108  -0.02067   3.11720
    D7        0.10184  -0.00214   0.00020  -0.08335  -0.08308   0.01876
    D8       -0.02147   0.00160  -0.00023   0.06078   0.06046   0.03899
    D9       -3.05751  -0.00028  -0.00045  -0.00150  -0.00194  -3.05945
   D10       -3.08880  -0.00016  -0.00003  -0.00406  -0.00408  -3.09288
   D11        0.02493  -0.00026  -0.00017  -0.00593  -0.00612   0.01881
   D12        0.01082  -0.00025  -0.00004  -0.00926  -0.00954   0.00128
   D13        3.12623  -0.00010  -0.00010   0.00956   0.01163   3.13786
   D14       -3.09711  -0.00103  -0.00018  -0.03826  -0.03927  -3.13638
   D15        0.01830  -0.00088  -0.00023  -0.01944  -0.01811   0.00020
   D16       -2.75156  -0.00277  -0.00054  -0.10022  -0.10084  -2.85240
   D17        0.41694  -0.00273  -0.00041  -0.09873  -0.09923   0.31772
   D18        0.35380  -0.00180  -0.00039  -0.06848  -0.06878   0.28503
   D19       -2.76088  -0.00175  -0.00026  -0.06699  -0.06717  -2.82804
   D20        0.00438   0.00042   0.00032   0.01058   0.01110   0.01548
   D21       -3.13671  -0.00039   0.00005  -0.01239  -0.01170   3.13478
   D22        3.04586   0.00226   0.00052   0.06994   0.07040   3.11625
   D23       -0.09523   0.00145   0.00025   0.04697   0.04760  -0.04763
   D24       -0.00923  -0.00008  -0.00017  -0.00055  -0.00073  -0.00996
   D25        3.13184   0.00077   0.00011   0.02353   0.02319  -3.12816
   D26       -3.11540  -0.00128  -0.00017  -0.03215  -0.03045   3.13734
   D27        0.02567  -0.00043   0.00011  -0.00806  -0.00653   0.01914
         Item               Value     Threshold  Converged?
 Maximum Force            0.021457     0.000450     NO 
 RMS     Force            0.005733     0.000300     NO 
 Maximum Displacement     0.247348     0.001800     NO 
 RMS     Displacement     0.074360     0.001200     NO 
 Predicted change in Energy=-6.506887D-03
 GradGradGradGradGradGradGradGradGradGradGradGradGradGradGradGradGradGrad

                          Input orientation:                          
 ---------------------------------------------------------------------
 Center     Atomic      Atomic             Coordinates (Angstroms)
 Number     Number       Type             X           Y           Z
 ---------------------------------------------------------------------
      1          8           0        4.642666    5.226564   -2.658338
      2          8           0        1.161021    5.865129   -2.824736
      3          8           0        2.331143    3.968920   -2.234153
      4          8           0        9.199192    5.984117   -2.653975
      5          7           0        2.241636    5.179969   -2.646482
      6          7           0        7.919279    6.681594   -2.701332
      7          6           0        5.633697    6.182680   -2.916537
      8          6           0        3.446883    5.888493   -2.859455
      9          6           0        5.053695    7.391993   -3.254411
     10          6           0        3.648227    7.198466   -3.207765
     11          6           0        7.005076    5.774583   -2.790926
     12          1           0        5.630834    8.233565   -3.480051
     13          1           0        2.867896    7.904493   -3.418907
     14          1           0        9.811498    6.762293   -2.556899
     15          1           0        7.228729    4.711931   -2.802784
 ---------------------------------------------------------------------
                    Distance matrix (angstroms):
                    1          2          3          4          5
     1  O    0.000000
     2  O    3.543629   0.000000
     3  O    2.665472   2.305120   0.000000
     4  O    4.619073   8.040865   7.169893   0.000000
     5  N    2.401511   1.291877   1.282445   7.003877   0.000000
     6  N    3.585409   6.808517   6.229296   1.458387   5.873119
     7  C    1.401059   4.484874   4.034011   3.580659   3.547455
     8  C    1.381483   2.286245   2.306651   5.756772   1.414208
     9  C    2.283272   4.203433   4.491174   4.419025   3.629092
    10  C    2.275780   2.847928   3.621132   5.709162   2.523463
    11  C    2.428762   5.844855   5.041435   2.208349   4.802582
    12  H    3.270128   5.100800   5.534204   4.298324   4.637451
    13  H    3.301450   2.724972   4.144934   6.660200   2.900323
    14  H    5.393105   8.701000   7.991421   0.994937   7.733989
    15  H    2.640726   6.176361   4.986157   2.350176   5.011446
                    6          7          8          9         10
     6  N    0.000000
     7  C    2.349280   0.000000
     8  C    4.544925   2.207251   0.000000
     9  C    3.003687   1.383112   2.235698   0.000000
    10  C    4.331918   2.249161   1.370360   1.419496   0.000000
    11  C    1.290916   1.436316   3.560676   2.576572   3.670100
    12  H    2.872629   2.126895   3.264068   1.045105   2.253064
    13  H    5.246605   3.296463   2.170822   2.251096   1.073299
    14  H    1.899438   4.233121   6.431437   4.849714   6.212872
    15  H    2.089671   2.172595   3.961044   3.481016   4.377997
                   11         12         13         14         15
    11  C    0.000000
    12  H    2.900005   0.000000
    13  H    4.695438   2.783137   0.000000
    14  H    2.984350   4.527118   7.089519   0.000000
    15  H    1.085997   3.926049   5.439570   3.306832   0.000000
 Stoichiometry    C5H4N2O4
 Framework group  C1[X(C5H4N2O4)]
 Deg. of freedom    39
 Full point group                 C1      NOp   1
 Largest Abelian subgroup         C1      NOp   1
 Largest concise Abelian subgroup C1      NOp   1
                         Standard orientation:                         
 ---------------------------------------------------------------------
 Center     Atomic      Atomic             Coordinates (Angstroms)
 Number     Number       Type             X           Y           Z
 ---------------------------------------------------------------------
      1          8           0       -0.259172   -0.671632   -0.063852
      2          8           0       -3.608079    0.480090    0.061295
      3          8           0       -2.733866   -1.652808    0.070018
      4          8           0        4.358907   -0.605991    0.005938
      5          7           0       -2.641163   -0.375125    0.010043
      6          7           0        3.195390    0.253239    0.192607
      7          6           0        0.863579    0.166308   -0.079815
      8          6           0       -1.343190    0.184345   -0.037349
      9          6           0        0.470122    1.492011   -0.053340
     10          6           0       -0.948919    1.496615   -0.017703
     11          6           0        2.159177   -0.452745   -0.114497
     12          1           0        1.166378    2.271410   -0.056568
     13          1           0       -1.615428    2.337734   -0.001727
     14          1           0        5.077559    0.018768    0.294235
     15          1           0        2.224978   -1.491188   -0.425455
 ---------------------------------------------------------------------
 Rotational constants (GHZ):      3.7635472      0.5006749      0.4428838
 Standard basis: 3-21G (6D, 7F)
 There are   107 symmetry adapted cartesian basis functions of A   symmetry.
 There are   107 symmetry adapted basis functions of A   symmetry.
   107 basis functions,   177 primitive gaussians,   107 cartesian basis functions
    40 alpha electrons       40 beta electrons
       nuclear repulsion energy       569.9903631605 Hartrees.
 NAtoms=   15 NActive=   15 NUniq=   15 SFac= 1.00D+00 NAtFMM=   60 NAOKFM=F Big=F
 Integral buffers will be    131072 words long.
 Raffenetti 2 integral format.
 Two-electron integral symmetry is turned on.
 One-electron integrals computed using PRISM.
 PrsmSu:  requested number of processors reduced to:  10 ShMem   1 Linda.
 NBasis=   107 RedAO= T EigKep=  2.43D-03  NBF=   107
 NBsUse=   107 1.00D-06 EigRej= -1.00D+00 NBFU=   107
 Initial guess from the checkpoint file:  "/tmp/scratch/63911.prometeo/Gau-19971.chk"
 B after Tr=     0.000000    0.000000    0.000000
         Rot=    0.999999    0.000050    0.000092    0.001128 Ang=   0.13 deg.
 ExpMin= 1.83D-01 ExpMax= 3.22D+02 ExpMxC= 3.22D+02 IAcc=1 IRadAn=         1 AccDes= 0.00D+00
 Harris functional with IExCor=  402 and IRadAn=       1 diagonalized for initial guess.
 HarFok:  IExCor=  402 AccDes= 0.00D+00 IRadAn=         1 IDoV= 1 UseB2=F ITyADJ=14
 ICtDFT=  3500011 ScaDFX=  1.000000  1.000000  1.000000  1.000000
 FoFCou: FMM=F IPFlag=           0 FMFlag=      100000 FMFlg1=           0
         NFxFlg=           0 DoJE=T BraDBF=F KetDBF=T FulRan=T
         wScrn=  0.000000 ICntrl=     500 IOpCl=  0 I1Cent=   200000004 NGrid=           0
         NMat0=    1 NMatS0=      1 NMatT0=    0 NMatD0=    1 NMtDS0=    0 NMtDT0=    0
 Petite list used in FoFCou.
 Keep R1 ints in memory in canonical form, NReq=17679100.
 Requested convergence on RMS density matrix=1.00D-08 within 128 cycles.
 Requested convergence on MAX density matrix=1.00D-06.
 Requested convergence on             energy=1.00D-06.
 No special actions if energy rises.
 Integral accuracy reduced to 1.0D-05 until final iterations.
 CalDSu:  requested number of processors reduced to:  17 ShMem   1 Linda.
 CalDSu:  requested number of processors reduced to:  17 ShMem   1 Linda.
 CalDSu:  requested number of processors reduced to:  17 ShMem   1 Linda.
 CalDSu:  requested number of processors reduced to:  17 ShMem   1 Linda.
 CalDSu:  requested number of processors reduced to:  17 ShMem   1 Linda.
 CalDSu:  requested number of processors reduced to:  17 ShMem   1 Linda.
 CalDSu:  requested number of processors reduced to:  17 ShMem   1 Linda.
 Initial convergence to 1.0D-05 achieved.  Increase integral accuracy.
 CalDSu:  requested number of processors reduced to:  17 ShMem   1 Linda.
 CalDSu:  requested number of processors reduced to:  17 ShMem   1 Linda.
 CalDSu:  requested number of processors reduced to:  17 ShMem   1 Linda.
 CalDSu:  requested number of processors reduced to:  17 ShMem   1 Linda.
 CalDSu:  requested number of processors reduced to:  17 ShMem   1 Linda.
 CalDSu:  requested number of processors reduced to:  17 ShMem   1 Linda.
 CalDSu:  requested number of processors reduced to:  17 ShMem   1 Linda.
 CalDSu:  requested number of processors reduced to:  17 ShMem   1 Linda.
 CalDSu:  requested number of processors reduced to:  17 ShMem   1 Linda.
 SCF Done:  E(RB3LYP) =  -599.768779605     A.U. after   16 cycles
            NFock= 16  Conv=0.60D-08     -V/T= 2.0078
 PrsmSu:  requested number of processors reduced to:  10 ShMem   1 Linda.
 Calling FoFJK, ICntrl=      2127 FMM=F ISym2X=0 I1Cent= 0 IOpClX= 0 NMat=1 NMatS=1 NMatT=0.
 ***** Axes restored to original set *****
 -------------------------------------------------------------------
 Center     Atomic                   Forces (Hartrees/Bohr)
 Number     Number              X              Y              Z
 -------------------------------------------------------------------
      1        8           0.002329146    0.002052632   -0.003881263
      2        8           0.000591529   -0.000582578   -0.002746247
      3        8           0.000551366   -0.000636362   -0.003086381
      4        8           0.007445625    0.004960894    0.000707949
      5        7           0.001578215    0.003117386    0.006279722
      6        7          -0.001586646   -0.005341211   -0.001872704
      7        6          -0.002186481   -0.001035113    0.000556013
      8        6          -0.004628361    0.000472708    0.001980964
      9        6          -0.004602267   -0.027622402    0.009623937
     10        6          -0.002019346    0.000190062   -0.003086485
     11        6          -0.008617463    0.001849088   -0.000734304
     12        1           0.007690033    0.023149528   -0.006557717
     13        1          -0.000609117    0.000517111    0.000506484
     14        1           0.004469942   -0.001490238    0.000260029
     15        1          -0.000406176    0.000398494    0.002050003
 -------------------------------------------------------------------
 Cartesian Forces:  Max     0.027622402 RMS     0.006456750

 GradGradGradGradGradGradGradGradGradGradGradGradGradGradGradGradGradGrad
 Berny optimization.
 Using GEDIIS/GDIIS optimizer.
 FormGI is forming the generalized inverse of G from B-inverse, IUseBI=4.
 Internal  Forces:  Max     0.024303205 RMS     0.004452837
 Search for a local minimum.
 Step number   4 out of a maximum of   73
 All quantities printed in internal units (Hartrees-Bohrs-Radians)
 Mixed Optimization -- RFO/linear search
 Update second derivatives using D2CorX and points    3    4
 DE= -4.66D-03 DEPred=-6.51D-03 R= 7.16D-01
 TightC=F SS=  1.41D+00  RLast= 3.38D-01 DXNew= 8.4853D-01 1.0150D+00
 Trust test= 7.16D-01 RLast= 3.38D-01 DXMaxT set to 8.49D-01
 ITU=  1  0  1  0
[...]
 ! R1    R(1,7)                  1.3984         -DE/DX =    0.0                 !
 ! R2    R(1,8)                  1.3837         -DE/DX =    0.0                 !
 ! R3    R(2,5)                  1.2919         -DE/DX =    0.0                 !
 ! R4    R(3,5)                  1.2824         -DE/DX =    0.0                 !
 ! R5    R(4,6)                  1.4633         -DE/DX =    0.0                 !
 ! R6    R(4,14)                 0.9965         -DE/DX =   -0.0001              !
 ! R7    R(5,8)                  1.4085         -DE/DX =    0.0                 !
 ! R8    R(6,11)                 1.2926         -DE/DX =    0.0                 !
 ! R9    R(7,9)                  1.3792         -DE/DX =    0.0                 !
 ! R10   R(7,11)                 1.4351         -DE/DX =    0.0                 !
 ! R11   R(8,10)                 1.3685         -DE/DX =    0.0                 !
 ! R12   R(9,10)                 1.4229         -DE/DX =    0.0                 !
 ! R13   R(9,12)                 1.0754         -DE/DX =   -0.0001              !
 ! R14   R(10,13)                1.0741         -DE/DX =    0.0                 !
 ! R15   R(11,15)                1.086          -DE/DX =    0.0                 !
 ! A1    A(7,1,8)              105.4856         -DE/DX =    0.0                 !
 ! A2    A(6,4,14)             101.1528         -DE/DX =    0.0                 !
 ! A3    A(2,5,3)              127.2893         -DE/DX =    0.0                 !
 ! A4    A(2,5,8)              115.1791         -DE/DX =    0.0                 !
 ! A5    A(3,5,8)              117.5316         -DE/DX =    0.0                 !
 ! A6    A(4,6,11)             108.5356         -DE/DX =    0.0                 !
 ! A7    A(1,7,9)              109.7859         -DE/DX =    0.0                 !
 ! A8    A(1,7,11)             116.8041         -DE/DX =    0.0                 !
 ! A9    A(9,7,11)             133.41           -DE/DX =    0.0                 !
 ! A10   A(1,8,5)              118.3786         -DE/DX =    0.0                 !
 ! A11   A(1,8,10)             111.2486         -DE/DX =    0.0                 !
 ! A12   A(5,8,10)             130.3727         -DE/DX =    0.0                 !
 ! A13   A(7,9,10)             107.1071         -DE/DX =    0.0                 !
 ! A14   A(7,9,12)             125.2356         -DE/DX =    0.0                 !
 ! A15   A(10,9,12)            127.6572         -DE/DX =    0.0                 !
 ! A16   A(8,10,9)             106.3728         -DE/DX =    0.0                 !
 ! A17   A(8,10,13)            125.1286         -DE/DX =    0.0                 !
 ! A18   A(9,10,13)            128.4986         -DE/DX =    0.0                 !
 ! A19   A(6,11,7)             120.0535         -DE/DX =    0.0                 !
 ! A20   A(6,11,15)            122.8793         -DE/DX =    0.0                 !
 ! A21   A(7,11,15)            117.0672         -DE/DX =    0.0                 !
 ! D1    D(8,1,7,9)             -0.0122         -DE/DX =    0.0                 !
 ! D2    D(8,1,7,11)          -180.0063         -DE/DX =    0.0                 !
 ! D3    D(7,1,8,5)            179.9953         -DE/DX =    0.0                 !
 ! D4    D(7,1,8,10)             0.003          -DE/DX =    0.0                 !
 ! D5    D(14,4,6,11)         -179.9836         -DE/DX =    0.0                 !
 ! D6    D(2,5,8,1)           -180.0024         -DE/DX =    0.0                 !
 ! D7    D(2,5,8,10)            -0.0118         -DE/DX =    0.0                 !
 ! D8    D(3,5,8,1)              0.0032         -DE/DX =    0.0                 !
 ! D9    D(3,5,8,10)           179.9938         -DE/DX =    0.0                 !
 ! D10   D(4,6,11,7)           180.0029         -DE/DX =    0.0                 !
 ! D11   D(4,6,11,15)           -0.0032         -DE/DX =    0.0                 !
 ! D12   D(1,7,9,10)             0.0166         -DE/DX =    0.0                 !
 ! D13   D(1,7,9,12)           180.0144         -DE/DX =    0.0                 !
 ! D14   D(11,7,9,10)          180.0093         -DE/DX =    0.0                 !
 ! D15   D(11,7,9,12)            0.0071         -DE/DX =    0.0                 !
 ! D16   D(1,7,11,6)          -179.9935         -DE/DX =    0.0                 !
 ! D17   D(1,7,11,15)            0.0123         -DE/DX =    0.0                 !
 ! D18   D(9,7,11,6)             0.0142         -DE/DX =    0.0                 !
 ! D19   D(9,7,11,15)          180.0199         -DE/DX =    0.0                 !
 ! D20   D(1,8,10,9)             0.007          -DE/DX =    0.0                 !
 ! D21   D(1,8,10,13)         -180.0056         -DE/DX =    0.0                 !
 ! D22   D(5,8,10,9)          -179.9842         -DE/DX =    0.0                 !
 ! D23   D(5,8,10,13)            0.0032         -DE/DX =    0.0                 !
 ! D24   D(7,9,10,8)            -0.0143         -DE/DX =    0.0                 !
 ! D25   D(7,9,10,13)         -180.0011         -DE/DX =    0.0                 !
 ! D26   D(12,9,10,8)          179.988          -DE/DX =    0.0                 !
 ! D27   D(12,9,10,13)           0.0012         -DE/DX =    0.0                 !
 --------------------------------------------------------------------------------
 GradGradGradGradGradGradGradGradGradGradGradGradGradGradGradGradGradGrad

                          Input orientation:                          
 ---------------------------------------------------------------------
 Center     Atomic      Atomic             Coordinates (Angstroms)
 Number     Number       Type             X           Y           Z
 ---------------------------------------------------------------------
      1          8           0        4.646235    5.247251   -2.641800
      2          8           0        1.163003    5.821511   -2.915958
      3          8           0        2.355303    3.920257   -2.382586
      4          8           0        9.229467    5.950566   -2.657034
      5          7           0        2.250619    5.156972   -2.705289
      6          7           0        7.957987    6.639388   -2.880728
      7          6           0        5.632519    6.215171   -2.855739
      8          6           0        3.441542    5.894541   -2.852313
      9          6           0        5.042963    7.417099   -3.187322
     10          6           0        3.635567    7.207928   -3.184076
     11          6           0        6.995917    5.795715   -2.698095
     12          1           0        5.571232    8.328519   -3.403550
     13          1           0        2.854160    7.914153   -3.394578
     14          1           0        9.879603    6.687254   -2.823104
     15          1           0        7.165353    4.758465   -2.424580
 ---------------------------------------------------------------------
                    Distance matrix (angstroms):
                    1          2          3          4          5
     1  O    0.000000
     2  O    3.540882   0.000000
     3  O    2.660164   2.306693   0.000000
     4  O    4.636906   8.071650   7.172978   0.000000
     5  N    2.398158   1.291859   1.282404   7.023990   0.000000
     6  N    3.600393   6.844119   6.247551   1.463276   5.899355
     7  C    1.398354   4.487222   4.028728   3.612137   3.546783
     8  C    1.383686   2.280597   2.301816   5.791489   1.408518
     9  C    2.272274   4.204000   4.483193   4.467521   3.624598
    10  C    2.271513   2.847386   3.618044   5.757643   2.520662
    11  C    2.413500   5.837037   5.015195   2.239288   4.788100
    12  H    3.306070   5.094636   5.551337   4.426582   4.644648
    13  H    3.300087   2.732808   4.150204   6.711496   2.905413
    14  H    5.430894   8.759979   8.029036   0.996476   7.781840
    15  H    2.575276   6.115531   4.882718   2.394934   4.938848
                    6          7          8          9         10
     6  N    0.000000
     7  C    2.363977   0.000000
     8  C    4.577541   2.214316   0.000000
     9  C    3.032524   1.379186   2.234941   0.000000
    10  C    4.370192   2.254150   1.368465   1.422859   0.000000
    11  C    1.292563   1.435148   3.559091   2.585007   3.677292
    12  H    2.970371   2.184055   3.280807   1.075412   2.247376
    13  H    5.285652   3.300934   2.172073   2.254079   1.074086
    14  H    1.923075   4.273365   6.486746   4.904938   6.276097
    15  H    2.091462   2.158117   3.916681   3.486352   4.363037
                   11         12         13         14         15
    11  C    0.000000
    12  H    2.990400   0.000000
    13  H    4.703936   2.748501   0.000000
    14  H    3.020946   4.646797   7.154628   0.000000
    15  H    1.086005   4.030495   5.430069   3.353536   0.000000
 Stoichiometry    C5H4N2O4
 Framework group  C1[X(C5H4N2O4)]
 Deg. of freedom    39
 Full point group                 C1      NOp   1
 Largest Abelian subgroup         C1      NOp   1
 Largest concise Abelian subgroup C1      NOp   1
                         Standard orientation:                         
 ---------------------------------------------------------------------
 Center     Atomic      Atomic             Coordinates (Angstroms)
 Number     Number       Type             X           Y           Z
 ---------------------------------------------------------------------
      1          8           0       -0.256732   -0.655243   -0.000042
      2          8           0       -3.618018    0.458130    0.000163
      3          8           0       -2.717575   -1.665554   -0.000096
      4          8           0        4.380099   -0.628909    0.000035
      5          7           0       -2.639673   -0.385518    0.000002
      6          7           0        3.223442    0.267373    0.000102
      7          6           0        0.860895    0.185177   -0.000051
      8          6           0       -1.353418    0.188477    0.000069
      9          6           0        0.454067    1.502995   -0.000225
     10          6           0       -0.968791    1.501778    0.000063
     11          6           0        2.147997   -0.449660   -0.000019
     12          1           0        1.110347    2.354939   -0.000489
     13          1           0       -1.638123    2.341811    0.000051
     14          1           0        5.131288    0.025828    0.000418
     15          1           0        2.163413   -1.535555   -0.000197
 ---------------------------------------------------------------------
 Rotational constants (GHZ):      3.7477337      0.4986947      0.4401287

 **********************************************************************

            Population analysis using the SCF density.

 **********************************************************************

 Orbital symmetries:
       Occupied  (A) (A) (A) (A) (A) (A) (A) (A) (A) (A) (A) (A)
                 (A) (A) (A) (A) (A) (A) (A) (A) (A) (A) (A) (A)
                 (A) (A) (A) (A) (A) (A) (A) (A) (A) (A) (A) (A)
                 (A) (A) (A) (A)
       Virtual   (A) (A) (A) (A) (A) (A) (A) (A) (A) (A) (A) (A)
                 (A) (A) (A) (A) (A) (A) (A) (A) (A) (A) (A) (A)
                 (A) (A) (A) (A) (A) (A) (A) (A) (A) (A) (A) (A)
                 (A) (A) (A) (A) (A) (A) (A) (A) (A) (A) (A) (A)
                 (A) (A) (A) (A) (A) (A) (A) (A) (A) (A) (A) (A)
                 (A) (A) (A) (A) (A) (A) (A)
 The electronic state is 1-A.
 Alpha  occ. eigenvalues --  -19.16152 -19.09922 -19.07059 -19.06772 -14.48749
 Alpha  occ. eigenvalues --  -14.33727 -10.25947 -10.23873 -10.19976 -10.18079
 Alpha  occ. eigenvalues --  -10.17257  -1.20579  -1.15975  -1.08822  -1.03711
 Alpha  occ. eigenvalues --   -0.91164  -0.86096  -0.83699  -0.74409  -0.66884
 Alpha  occ. eigenvalues --   -0.61081  -0.59345  -0.55418  -0.54414  -0.53593
 Alpha  occ. eigenvalues --   -0.49428  -0.49128  -0.47745  -0.46624  -0.45521
 Alpha  occ. eigenvalues --   -0.43492  -0.41804  -0.41200  -0.32656  -0.31625
 Alpha  occ. eigenvalues --   -0.30109  -0.29299  -0.28834  -0.28243  -0.24939
 Alpha virt. eigenvalues --   -0.10931  -0.05464   0.03343   0.03949   0.07599
 Alpha virt. eigenvalues --    0.08614   0.10608   0.13332   0.14811   0.16733
 Alpha virt. eigenvalues --    0.18460   0.19478   0.23443   0.29258   0.29864
 Alpha virt. eigenvalues --    0.34345   0.38732   0.44003   0.50590   0.65563
 Alpha virt. eigenvalues --    0.67142   0.69125   0.69520   0.71251   0.74304
 Alpha virt. eigenvalues --    0.75605   0.76072   0.78573   0.79754   0.83963
 Alpha virt. eigenvalues --    0.87929   0.91715   0.95075   1.00345   1.06721
 Alpha virt. eigenvalues --    1.07229   1.08011   1.10692   1.14132   1.18216
 Alpha virt. eigenvalues --    1.25891   1.28863   1.33089   1.36539   1.42145
 Alpha virt. eigenvalues --    1.42770   1.43267   1.47913   1.49947   1.52806
 Alpha virt. eigenvalues --    1.55320   1.55967   1.57625   1.62245   1.63459
 Alpha virt. eigenvalues --    1.68347   1.72806   1.77826   1.85111   1.94224
 Alpha virt. eigenvalues --    2.22266   2.48745   2.72852   2.84699   2.87007
 Alpha virt. eigenvalues --    2.89924   3.31814
          Condensed to atoms (all electrons):
               1          2          3          4          5          6
     1  O    8.169615   0.000302   0.000310   0.000000  -0.020412   0.000640
     2  O    0.000302   8.234186  -0.047822   0.000000   0.188039   0.000000
     3  O    0.000310  -0.047822   8.233956   0.000000   0.155589   0.000000
     4  O    0.000000   0.000000   0.000000   8.077910   0.000000   0.138877
     5  N   -0.020412   0.188039   0.155589   0.000000   6.709616   0.000000
     6  N    0.000640   0.000000   0.000000   0.138877   0.000000   6.852929
     7  C    0.266680  -0.000033   0.000248   0.004146  -0.001805  -0.084776
     8  C    0.278016  -0.092013  -0.066304   0.000000   0.020159  -0.000061
     9  C   -0.080615   0.000358  -0.000064  -0.000042   0.005076   0.000042
    10  C   -0.089428   0.012668   0.003138   0.000000  -0.054947   0.000181
    11  C   -0.021676   0.000000   0.000003  -0.040979  -0.000053   0.420423
    12  H    0.001616   0.000000   0.000000  -0.000007  -0.000004   0.002252
    13  H    0.001653   0.004701   0.000017   0.000000  -0.003356   0.000000
    14  H    0.000000   0.000000   0.000000   0.231797   0.000000  -0.024950
    15  H   -0.000059   0.000000   0.000000   0.000733  -0.000003  -0.044020
               7          8          9         10         11         12
     1  O    0.266680   0.278016  -0.080615  -0.089428  -0.021676   0.001616
     2  O   -0.000033  -0.092013   0.000358   0.012668   0.000000   0.000000
     3  O    0.000248  -0.066304  -0.000064   0.003138   0.000003   0.000000
     4  O    0.004146   0.000000  -0.000042   0.000000  -0.040979  -0.000007
     5  N   -0.001805   0.020159   0.005076  -0.054947  -0.000053  -0.000004
     6  N   -0.084776  -0.000061   0.000042   0.000181   0.420423   0.002252
     7  C    5.203588  -0.162932   0.318779  -0.076355   0.303454  -0.029933
     8  C   -0.162932   5.251153  -0.073691   0.216922  -0.000671   0.005205
     9  C    0.318779  -0.073691   5.406442   0.332474  -0.068985   0.384210
    10  C   -0.076355   0.216922   0.332474   5.462362   0.006168  -0.025304
    11  C    0.303454  -0.000671  -0.068985   0.006168   5.007498  -0.001848
    12  H   -0.029933   0.005205   0.384210  -0.025304  -0.001848   0.438816
    13  H    0.004924  -0.033196  -0.023042   0.378204  -0.000019  -0.000932
    14  H   -0.000516   0.000000   0.000009   0.000000   0.001966  -0.000004
    15  H   -0.046384  -0.000075   0.004727  -0.000033   0.324148   0.000048
              13         14         15
     1  O    0.001653   0.000000  -0.000059
     2  O    0.004701   0.000000   0.000000
     3  O    0.000017   0.000000   0.000000
     4  O    0.000000   0.231797   0.000733
     5  N   -0.003356   0.000000  -0.000003
     6  N    0.000000  -0.024950  -0.044020
     7  C    0.004924  -0.000516  -0.046384
     8  C   -0.033196   0.000000  -0.000075
     9  C   -0.023042   0.000009   0.004727
    10  C    0.378204   0.000000  -0.000033
    11  C   -0.000019   0.001966   0.324148
    12  H   -0.000932  -0.000004   0.000048
    13  H    0.429575   0.000000   0.000000
    14  H    0.000000   0.411964   0.000147
    15  H    0.000000   0.000147   0.506990
 Mulliken charges:
               1
     1  O   -0.506642
     2  O   -0.300385
     3  O   -0.279070
     4  O   -0.412435
     5  N    0.002102
     6  N   -0.261539
     7  C    0.300914
     8  C    0.657488
     9  C   -0.205679
    10  C   -0.166049
    11  C    0.070570
    12  H    0.225886
    13  H    0.241471
    14  H    0.379588
    15  H    0.253780
 Sum of Mulliken charges =   0.00000
 Mulliken charges with hydrogens summed into heavy atoms:
               1
     1  O   -0.506642
     2  O   -0.300385
     3  O   -0.279070
     4  O   -0.032847
     5  N    0.002102
     6  N   -0.261539
     7  C    0.300914
     8  C    0.657488
     9  C    0.020207
    10  C    0.075422
    11  C    0.324350
 Electronic spatial extent (au):  <R**2>=           2273.6278
 Charge=              0.0000 electrons
 Dipole moment (field-independent basis, Debye):
    X=              4.6227    Y=              2.7716    Z=              0.0002  Tot=              5.3899
 Quadrupole moment (field-independent basis, Debye-Ang):
   XX=            -62.4554   YY=            -60.1686   ZZ=            -61.4647
   XY=             -1.2260   XZ=              0.0030   YZ=             -0.0011
 Traceless Quadrupole moment (field-independent basis, Debye-Ang):
   XX=             -1.0925   YY=              1.1943   ZZ=             -0.1018
   XY=             -1.2260   XZ=              0.0030   YZ=             -0.0011
 Octapole moment (field-independent basis, Debye-Ang**2):
  XXX=            134.4834  YYY=              6.3139  ZZZ=              0.0010  XYY=              2.9270
  XXY=             18.5030  XXZ=              0.0164  XZZ=             -5.3845  YZZ=             -6.7490
  YYZ=             -0.0022  XYZ=              0.0003
 Hexadecapole moment (field-independent basis, Debye-Ang**3):
 XXXX=          -1885.2802 YYYY=           -343.5343 ZZZZ=            -51.3207 XXXY=             82.1412
 XXXZ=              0.1122 YYYX=            -22.0248 YYYZ=             -0.0049 ZZZX=              0.0021
 ZZZY=              0.0014 XXYY=           -468.8980 XXZZ=           -376.4414 YYZZ=            -74.3764
 XXYZ=             -0.0036 YYXZ=             -0.0060 ZZXY=              3.9578
 N-N= 5.692479219679D+02 E-N=-2.542047457898D+03  KE= 5.950380994013D+02
 1\1\GINC-NODE045\FOpt\RB3LYP\3-21G\C5H4N2O4\SUPERCOMPUTO1\06-Jul-2020\
 0\\# opt b3lyp/3-21g geom=connectivity\\Title Card Required\\0,1\O,4.6
 46235434,5.2472505452,-2.6417998212\O,1.1630034763,5.8215114311,-2.915
 9580835\O,2.3553029458,3.920257102,-2.3825858708\O,9.2294669703,5.9505
 658922,-2.6570335218\N,2.2506186892,5.1569724508,-2.7052890806\N,7.957
 987037,6.6393883984,-2.8807275509\C,5.6325189369,6.2151710203,-2.85573
 86097\C,3.4415423658,5.8945406608,-2.8523134846\C,5.0429625505,7.41709
 88543,-3.1873219139\C,3.6355665367,7.2079277715,-3.1840755851\C,6.9959
 166954,5.7957149406,-2.6980945317\H,5.5712324441,8.3285193908,-3.40354
 99548\H,2.8541604466,7.9141530985,-3.3945782505\H,9.8796026448,6.68725
 37164,-2.8231040732\H,7.1653528264,4.758464727,-2.4245796677\\Version=
 ES64L-G09RevD.01\State=1-A\HF=-599.7718351\RMSD=6.040e-09\RMSF=2.880e-
 05\Dipole=1.6443102,1.3097934,-0.2781958\Quadrupole=-0.5211904,0.53613
 39,-0.0149434,-1.0811512,0.2651561,-0.1974443\PG=C01 [X(C5H4N2O4)]\\@


 THE MOST SERIOUS THREAT TO THE SURVIVAL OF MANKIND IS NOT NOW
 IGNORANCE IN THE TRADITIONAL SENSE,
 BUT A MORALLY NEUTRAL, AN INSENSITIVE OR INHIBITED HUMAN INTELLIGENCE.

                     -- MARGO JEFFERSON IN NEWSWEEK, SEPTEMBER 2, 1974
 Job cpu time:       0 days  0 hours 23 minutes  5.2 seconds.
 File lengths (MBytes):  RWF=      8 Int=      0 D2E=      0 Chk=      2 Scr=      1
 Normal termination of Gaussian 09 at Mon Jul  6 10:41:17 2020.
