 Entering Gaussian System, Link 0=g09
 Input=sitafloxacina.gjf
 Output=sitafloxacina.log
 Initial command:
 /usr/local/cluster_programs/g09/l1.exe "/tmp/scratch/72308.prometeo/Gau-13802.inp" -scrdir="/tmp/scratch/72308.prometeo/"
 Entering Link 1 = /usr/local/cluster_programs/g09/l1.exe PID=     13803.
  
 Copyright (c) 1988,1990,1992,1993,1995,1998,2003,2009,2013,
            Gaussian, Inc.  All Rights Reserved.
  
 This is part of the Gaussian(R) 09 program.  It is based on
 the Gaussian(R) 03 system (copyright 2003, Gaussian, Inc.),
 the Gaussian(R) 98 system (copyright 1998, Gaussian, Inc.),
 the Gaussian(R) 94 system (copyright 1995, Gaussian, Inc.),
 the Gaussian 92(TM) system (copyright 1992, Gaussian, Inc.),
 the Gaussian 90(TM) system (copyright 1990, Gaussian, Inc.),
 the Gaussian 88(TM) system (copyright 1988, Gaussian, Inc.),
 the Gaussian 86(TM) system (copyright 1986, Carnegie Mellon
 University), and the Gaussian 82(TM) system (copyright 1983,
 Carnegie Mellon University). Gaussian is a federally registered
 trademark of Gaussian, Inc.
  
 This software contains proprietary and confidential information,
 including trade secrets, belonging to Gaussian, Inc.
  
 This software is provided under written license and may be
 used, copied, transmitted, or stored only in accord with that
 written license.
  
 The following legend is applicable only to US Government
 contracts under FAR:
  
                    RESTRICTED RIGHTS LEGEND
  
 Use, reproduction and disclosure by the US Government is
 subject to restrictions as set forth in subparagraphs (a)
 and (c) of the Commercial Computer Software - Restricted
 Rights clause in FAR 52.227-19.
  
 Gaussian, Inc.
 340 Quinnipiac St., Bldg. 40, Wallingford CT 06492
  
  
 ---------------------------------------------------------------
 Warning -- This program may not be used in any manner that
 competes with the business of Gaussian, Inc. or will provide
 assistance to any competitor of Gaussian, Inc.  The licensee
 of this program is prohibited from giving any competitor of
 Gaussian, Inc. access to this program.  By using this program,
 the user acknowledges that Gaussian, Inc. is engaged in the
 business of creating and licensing software in the field of
 computational chemistry and represents and warrants to the
 licensee that it is not a competitor of Gaussian, Inc. and that
 it will not use this program in any manner prohibited above.
 ---------------------------------------------------------------
  

 Cite this work as:
 Gaussian 09, Revision D.01,
 M. J. Frisch, G. W. Trucks, H. B. Schlegel, G. E. Scuseria, 
 M. A. Robb, J. R. Cheeseman, G. Scalmani, V. Barone, B. Mennucci, 
 G. A. Petersson, H. Nakatsuji, M. Caricato, X. Li, H. P. Hratchian, 
 A. F. Izmaylov, J. Bloino, G. Zheng, J. L. Sonnenberg, M. Hada, 
 M. Ehara, K. Toyota, R. Fukuda, J. Hasegawa, M. Ishida, T. Nakajima, 
 Y. Honda, O. Kitao, H. Nakai, T. Vreven, J. A. Montgomery, Jr., 
 J. E. Peralta, F. Ogliaro, M. Bearpark, J. J. Heyd, E. Brothers, 
 K. N. Kudin, V. N. Staroverov, T. Keith, R. Kobayashi, J. Normand, 
 K. Raghavachari, A. Rendell, J. C. Burant, S. S. Iyengar, J. Tomasi, 
 M. Cossi, N. Rega, J. M. Millam, M. Klene, J. E. Knox, J. B. Cross, 
 V. Bakken, C. Adamo, J. Jaramillo, R. Gomperts, R. E. Stratmann, 
 O. Yazyev, A. J. Austin, R. Cammi, C. Pomelli, J. W. Ochterski, 
 R. L. Martin, K. Morokuma, V. G. Zakrzewski, G. A. Voth, 
 P. Salvador, J. J. Dannenberg, S. Dapprich, A. D. Daniels, 
 O. Farkas, J. B. Foresman, J. V. Ortiz, J. Cioslowski, 
 and D. J. Fox, Gaussian, Inc., Wallingford CT, 2013.
 
 ******************************************
 Gaussian 09:  ES64L-G09RevD.01 24-Apr-2013
                13-Jul-2021 
 ******************************************
 %nprocshared=20
 Will use up to   20 processors via shared memory.
 -----------------------------------
 # opt b3lyp/3-21g geom=connectivity
 -----------------------------------
 1/14=-1,18=20,19=15,26=3,38=1,57=2/1,3;
 2/9=110,12=2,17=6,18=5,40=1/2;
 3/5=5,11=2,16=1,25=1,30=1,71=1,74=-5/1,2,3;
 4//1;
 5/5=2,38=5/2;
 6/7=2,8=2,9=2,10=2,28=1/1;
 7//1,2,3,16;
 1/14=-1,18=20,19=15,26=3/3(2);
 2/9=110/2;
 99//99;
 2/9=110/2;
 3/5=5,11=2,16=1,25=1,30=1,71=1,74=-5/1,2,3;
 4/5=5,16=3,69=1/1;
 5/5=2,38=5/2;
 7//1,2,3,16;
 1/14=-1,18=20,19=15,26=3/3(-5);
 2/9=110/2;
 6/7=2,8=2,9=2,10=2,19=2,28=1/1;
 99/9=1/99;
 -------------------
 Title Card Required
 -------------------
 Symbolic Z-matrix:
 Charge =  0 Multiplicity = 1
 Cl(PDBName=Cl1,ResName=MOL,ResNum=1) 0    -0.8121    1.93888  -1.05561  L 
 F(PDBName=F2,ResName=MOL,ResNum=1) 0     1.02717   1.99228   2.00635  L 
 F(PDBName=F3,ResName=MOL,ResNum=1) 0    -1.71164  -2.81477   0.69145  L 
 O(PDBName=O4,ResName=MOL,ResNum=1) 0     3.1916   -2.90603   0.31083  L 
 O(PDBName=O5,ResName=MOL,ResNum=1) 0     5.74349  -2.15361  -0.27306  L 
 O(PDBName=O6,ResName=MOL,ResNum=1) 0     6.13741   0.05553  -0.69215  L 
 N(PDBName=N7,ResName=MOL,ResNum=1) 0    -2.5854   -0.24376  -0.07926  L 
 N(PDBName=N8,ResName=MOL,ResNum=1) 0    -4.55304   1.75072  -1.01507  L 
 N(PDBName=N9,ResName=MOL,ResNum=1) 0     2.18162   1.05654  -0.34893  L 
 C(PDBName=C10,ResName=MOL,ResNum=1) 0    -4.92493  -0.58921  -0.11185  L 
 C(PDBName=C11,ResName=MOL,ResNum=1) 0    -6.27574  -1.06919  -0.59188  L 
 C(PDBName=C12,ResName=MOL,ResNum=1) 0    -5.81119  -1.38131   0.83565  L 
 C(PDBName=C13,ResName=MOL,ResNum=1) 0    -4.63219   0.88799   0.18132  L 
 C(PDBName=C14,ResName=MOL,ResNum=1) 0    -3.61614  -1.19031  -0.62072  L 
 C(PDBName=C15,ResName=MOL,ResNum=1) 0    -3.22372   0.79202   0.79573  L 
 C(PDBName=C16,ResName=MOL,ResNum=1) 0    -1.23624  -0.56167   0.00174  L 
 C(PDBName=C17,ResName=MOL,ResNum=1) 0     1.9763    2.49768  -0.22312  L 
 C(PDBName=C18,ResName=MOL,ResNum=1) 0     1.37375   2.97357   1.079    L 
 C(PDBName=C19,ResName=MOL,ResNum=1) 0     2.83556   3.21821   0.83075  L 
 C(PDBName=C20,ResName=MOL,ResNum=1) 0    -0.22898   0.37378  -0.29257  L 
 C(PDBName=C21,ResName=MOL,ResNum=1) 0     1.14694   0.10998  -0.17125  L 
 C(PDBName=C22,ResName=MOL,ResNum=1) 0    -0.78295  -1.85616   0.35427  L 
 C(PDBName=C23,ResName=MOL,ResNum=1) 0     1.52133  -1.22705   0.08812  L 
 C(PDBName=C24,ResName=MOL,ResNum=1) 0     0.54356  -2.18915   0.34435  L 
 C(PDBName=C25,ResName=MOL,ResNum=1) 0     3.47408   0.62041  -0.43271  L 
 C(PDBName=C26,ResName=MOL,ResNum=1) 0     2.93418  -1.71251   0.06728  L 
 C(PDBName=C27,ResName=MOL,ResNum=1) 0     3.88945  -0.66747  -0.27568  L 
 C(PDBName=C28,ResName=MOL,ResNum=1) 0     5.34059  -0.85475  -0.43595  L 
 H(PDBName=H29,ResName=MOL,ResNum=1) 0    -7.06211  -0.33141  -0.7152   L 
 H(PDBName=H30,ResName=MOL,ResNum=1) 0    -6.30229  -1.88851  -1.30211  L 
 H(PDBName=H31,ResName=MOL,ResNum=1) 0    -5.52627  -2.40277   1.06032  L 
 H(PDBName=H32,ResName=MOL,ResNum=1) 0    -6.28871  -0.84326   1.64735  L 
 H(PDBName=H33,ResName=MOL,ResNum=1) 0    -5.35567   1.30385   0.88974  L 
 H(PDBName=H34,ResName=MOL,ResNum=1) 0    -3.46147  -2.20632  -0.26113  L 
 H(PDBName=H35,ResName=MOL,ResNum=1) 0    -3.57259  -1.17931  -1.71692  L 
 H(PDBName=H36,ResName=MOL,ResNum=1) 0    -2.69866   1.74371   0.72824  L 
 H(PDBName=H37,ResName=MOL,ResNum=1) 0    -3.27161   0.44941   1.83718  L 
 H(PDBName=H38,ResName=MOL,ResNum=1) 0    -5.38957   1.66325  -1.60064  L 
 H(PDBName=H39,ResName=MOL,ResNum=1) 0    -3.71617   1.52045  -1.56052  L 
 H(PDBName=H40,ResName=MOL,ResNum=1) 0     1.71563   3.02421  -1.12967  L 
 H(PDBName=H41,ResName=MOL,ResNum=1) 0     0.6716    3.79623   1.03773  L 
 H(PDBName=H42,ResName=MOL,ResNum=1) 0     3.51892   2.60048   1.4      L 
 H(PDBName=H43,ResName=MOL,ResNum=1) 0     3.16663   4.2241    0.60777  L 
 H(PDBName=H44,ResName=MOL,ResNum=1) 0     0.87752  -3.19367   0.56691  L 
 H(PDBName=H45,ResName=MOL,ResNum=1) 0     4.22373   1.37766  -0.62318  L 
 H(PDBName=H46,ResName=MOL,ResNum=1) 0     6.73271  -2.17746  -0.39769  L 
 
 Center=     -0.62642626      0.09415809      0.03120002
 Residue   1 PDB Number     1_0 MOL charge    0.00000000 layers R        AvRTP=      0.00000000      0.00000000      0.00000000

 GradGradGradGradGradGradGradGradGradGradGradGradGradGradGradGradGradGrad
 Berny optimization.
 Initialization pass.
                           ----------------------------
                           !    Initial Parameters    !
                           ! (Angstroms and Degrees)  !
 --------------------------                            --------------------------
 ! Name  Definition              Value          Derivative Info.                !
 --------------------------------------------------------------------------------
 ! R1    R(1,20)                 1.8362         estimate D2E/DX2                !
 ! R2    R(2,18)                 1.3939         estimate D2E/DX2                !
 ! R3    R(3,22)                 1.3766         estimate D2E/DX2                !
 ! R4    R(4,26)                 1.245          estimate D2E/DX2                !
 ! R5    R(5,28)                 1.3696         estimate D2E/DX2                !
 ! R6    R(5,46)                 0.9973         estimate D2E/DX2                !
 ! R7    R(6,28)                 1.2366         estimate D2E/DX2                !
 ! R8    R(7,14)                 1.5005         estimate D2E/DX2                !
 ! R9    R(7,15)                 1.4986         estimate D2E/DX2                !
 ! R10   R(7,16)                 1.3885         estimate D2E/DX2                !
 ! R11   R(8,13)                 1.4771         estimate D2E/DX2                !
 ! R12   R(8,38)                 1.0249         estimate D2E/DX2                !
 ! R13   R(8,39)                 1.0251         estimate D2E/DX2                !
 ! R14   R(9,17)                 1.4611         estimate D2E/DX2                !
 ! R15   R(9,21)                 1.4136         estimate D2E/DX2                !
 ! R16   R(9,25)                 1.3666         estimate D2E/DX2                !
 ! R17   R(10,11)                1.5118         estimate D2E/DX2                !
 ! R18   R(10,12)                1.5201         estimate D2E/DX2                !
 ! R19   R(10,13)                1.5342         estimate D2E/DX2                !
 ! R20   R(10,14)                1.5275         estimate D2E/DX2                !
 ! R21   R(11,12)                1.5333         estimate D2E/DX2                !
 ! R22   R(11,29)                1.0853         estimate D2E/DX2                !
 ! R23   R(11,30)                1.0846         estimate D2E/DX2                !
 ! R24   R(12,31)                1.084          estimate D2E/DX2                !
 ! R25   R(12,32)                1.0846         estimate D2E/DX2                !
 ! R26   R(13,15)                1.5396         estimate D2E/DX2                !
 ! R27   R(13,33)                1.0946         estimate D2E/DX2                !
 ! R28   R(14,34)                1.0888         estimate D2E/DX2                !
 ! R29   R(14,35)                1.0971         estimate D2E/DX2                !
 ! R30   R(15,36)                1.089          estimate D2E/DX2                !
 ! R31   R(15,37)                1.0974         estimate D2E/DX2                !
 ! R32   R(16,20)                1.4058         estimate D2E/DX2                !
 ! R33   R(16,22)                1.4161         estimate D2E/DX2                !
 ! R34   R(17,18)                1.5116         estimate D2E/DX2                !
 ! R35   R(17,19)                1.5389         estimate D2E/DX2                !
 ! R36   R(17,40)                1.0803         estimate D2E/DX2                !
 ! R37   R(18,19)                1.5028         estimate D2E/DX2                !
 ! R38   R(18,41)                1.0823         estimate D2E/DX2                !
 ! R39   R(19,42)                1.0829         estimate D2E/DX2                !
 ! R40   R(19,43)                1.0822         estimate D2E/DX2                !
 ! R41   R(20,21)                1.4062         estimate D2E/DX2                !
 ! R42   R(21,23)                1.4125         estimate D2E/DX2                !
 ! R43   R(22,24)                1.3677         estimate D2E/DX2                !
 ! R44   R(23,24)                1.3955         estimate D2E/DX2                !
 ! R45   R(23,26)                1.4941         estimate D2E/DX2                !
 ! R46   R(24,44)                1.0817         estimate D2E/DX2                !
 ! R47   R(25,27)                1.3623         estimate D2E/DX2                !
 ! R48   R(25,45)                1.0824         estimate D2E/DX2                !
 ! R49   R(26,27)                1.4568         estimate D2E/DX2                !
 ! R50   R(27,28)                1.4719         estimate D2E/DX2                !
 ! A1    A(28,5,46)            107.4326         estimate D2E/DX2                !
 ! A2    A(14,7,15)            110.7376         estimate D2E/DX2                !
 ! A3    A(14,7,16)            122.9622         estimate D2E/DX2                !
 ! A4    A(15,7,16)            122.5518         estimate D2E/DX2                !
 ! A5    A(13,8,38)            111.6656         estimate D2E/DX2                !
 ! A6    A(13,8,39)            110.09           estimate D2E/DX2                !
 ! A7    A(38,8,39)            110.0694         estimate D2E/DX2                !
 ! A8    A(17,9,21)            123.1475         estimate D2E/DX2                !
 ! A9    A(17,9,25)            116.9329         estimate D2E/DX2                !
 ! A10   A(21,9,25)            119.0945         estimate D2E/DX2                !
 ! A11   A(11,10,13)           122.4707         estimate D2E/DX2                !
 ! A12   A(11,10,14)           122.3348         estimate D2E/DX2                !
 ! A13   A(12,10,13)           119.5956         estimate D2E/DX2                !
 ! A14   A(12,10,14)           120.143          estimate D2E/DX2                !
 ! A15   A(13,10,14)           106.2046         estimate D2E/DX2                !
 ! A16   A(10,11,29)           117.8821         estimate D2E/DX2                !
 ! A17   A(10,11,30)           118.0106         estimate D2E/DX2                !
 ! A18   A(12,11,29)           117.6243         estimate D2E/DX2                !
 ! A19   A(12,11,30)           117.5997         estimate D2E/DX2                !
 ! A20   A(29,11,30)           114.9206         estimate D2E/DX2                !
 ! A21   A(10,12,31)           117.838          estimate D2E/DX2                !
 ! A22   A(10,12,32)           117.6888         estimate D2E/DX2                !
 ! A23   A(11,12,31)           117.672          estimate D2E/DX2                !
 ! A24   A(11,12,32)           117.5408         estimate D2E/DX2                !
 ! A25   A(31,12,32)           115.3455         estimate D2E/DX2                !
 ! A26   A(8,13,10)            114.6968         estimate D2E/DX2                !
 ! A27   A(8,13,15)            108.0955         estimate D2E/DX2                !
 ! A28   A(8,13,33)            109.7369         estimate D2E/DX2                !
 ! A29   A(10,13,15)           100.9993         estimate D2E/DX2                !
 ! A30   A(10,13,33)           111.3054         estimate D2E/DX2                !
 ! A31   A(15,13,33)           111.7184         estimate D2E/DX2                !
 ! A32   A(7,14,10)            102.7158         estimate D2E/DX2                !
 ! A33   A(7,14,34)            111.8323         estimate D2E/DX2                !
 ! A34   A(7,14,35)            109.0841         estimate D2E/DX2                !
 ! A35   A(10,14,34)           112.2652         estimate D2E/DX2                !
 ! A36   A(10,14,35)           111.2799         estimate D2E/DX2                !
 ! A37   A(34,14,35)           109.4941         estimate D2E/DX2                !
 ! A38   A(7,15,13)            101.5212         estimate D2E/DX2                !
 ! A39   A(7,15,36)            111.2508         estimate D2E/DX2                !
 ! A40   A(7,15,37)            110.9098         estimate D2E/DX2                !
 ! A41   A(13,15,36)           111.2145         estimate D2E/DX2                !
 ! A42   A(13,15,37)           110.9926         estimate D2E/DX2                !
 ! A43   A(36,15,37)           110.6522         estimate D2E/DX2                !
 ! A44   A(7,16,20)            122.1168         estimate D2E/DX2                !
 ! A45   A(7,16,22)            122.3335         estimate D2E/DX2                !
 ! A46   A(20,16,22)           115.533          estimate D2E/DX2                !
 ! A47   A(9,17,18)            116.1483         estimate D2E/DX2                !
 ! A48   A(9,17,19)            116.2521         estimate D2E/DX2                !
 ! A49   A(9,17,40)            116.2564         estimate D2E/DX2                !
 ! A50   A(18,17,40)           118.2446         estimate D2E/DX2                !
 ! A51   A(19,17,40)           118.7647         estimate D2E/DX2                !
 ! A52   A(2,18,17)            116.7793         estimate D2E/DX2                !
 ! A53   A(2,18,19)            117.7982         estimate D2E/DX2                !
 ! A54   A(2,18,41)            113.5246         estimate D2E/DX2                !
 ! A55   A(17,18,41)           117.7117         estimate D2E/DX2                !
 ! A56   A(19,18,41)           120.0662         estimate D2E/DX2                !
 ! A57   A(17,19,42)           116.4404         estimate D2E/DX2                !
 ! A58   A(17,19,43)           117.7054         estimate D2E/DX2                !
 ! A59   A(18,19,42)           115.731          estimate D2E/DX2                !
 ! A60   A(18,19,43)           118.8778         estimate D2E/DX2                !
 ! A61   A(42,19,43)           116.4544         estimate D2E/DX2                !
 ! A62   A(1,20,16)            115.2538         estimate D2E/DX2                !
 ! A63   A(1,20,21)            120.4285         estimate D2E/DX2                !
 ! A64   A(16,20,21)           123.9294         estimate D2E/DX2                !
 ! A65   A(9,21,20)            125.4318         estimate D2E/DX2                !
 ! A66   A(9,21,23)            117.5765         estimate D2E/DX2                !
 ! A67   A(20,21,23)           116.9214         estimate D2E/DX2                !
 ! A68   A(3,22,16)            118.7877         estimate D2E/DX2                !
 ! A69   A(3,22,24)            119.113          estimate D2E/DX2                !
 ! A70   A(16,22,24)           122.0865         estimate D2E/DX2                !
 ! A71   A(21,23,24)           120.0408         estimate D2E/DX2                !
 ! A72   A(21,23,26)           123.7558         estimate D2E/DX2                !
 ! A73   A(24,23,26)           116.1761         estimate D2E/DX2                !
 ! A74   A(22,24,23)           120.8669         estimate D2E/DX2                !
 ! A75   A(22,24,44)           121.6036         estimate D2E/DX2                !
 ! A76   A(23,24,44)           117.4964         estimate D2E/DX2                !
 ! A77   A(9,25,27)            125.6611         estimate D2E/DX2                !
 ! A78   A(9,25,45)            116.2634         estimate D2E/DX2                !
 ! A79   A(27,25,45)           118.0658         estimate D2E/DX2                !
 ! A80   A(4,26,23)            120.2832         estimate D2E/DX2                !
 ! A81   A(4,26,27)            126.7376         estimate D2E/DX2                !
 ! A82   A(23,26,27)           112.9723         estimate D2E/DX2                !
 ! A83   A(25,27,26)           120.3561         estimate D2E/DX2                !
 ! A84   A(25,27,28)           114.0998         estimate D2E/DX2                !
 ! A85   A(26,27,28)           125.5095         estimate D2E/DX2                !
 ! A86   A(5,28,6)             122.22           estimate D2E/DX2                !
 ! A87   A(5,28,27)            113.4354         estimate D2E/DX2                !
 ! A88   A(6,28,27)            124.3447         estimate D2E/DX2                !
 ! D1    D(46,5,28,6)            0.0955         estimate D2E/DX2                !
 ! D2    D(46,5,28,27)        -179.8884         estimate D2E/DX2                !
 ! D3    D(15,7,14,10)           4.5594         estimate D2E/DX2                !
 ! D4    D(15,7,14,34)        -116.0267         estimate D2E/DX2                !
 ! D5    D(15,7,14,35)         122.7077         estimate D2E/DX2                !
 ! D6    D(16,7,14,10)         163.1885         estimate D2E/DX2                !
 ! D7    D(16,7,14,34)          42.6024         estimate D2E/DX2                !
 ! D8    D(16,7,14,35)         -78.6632         estimate D2E/DX2                !
 ! D9    D(14,7,15,13)         -28.6985         estimate D2E/DX2                !
 ! D10   D(14,7,15,36)        -147.0916         estimate D2E/DX2                !
 ! D11   D(14,7,15,37)          89.2882         estimate D2E/DX2                !
 ! D12   D(16,7,15,13)         172.5694         estimate D2E/DX2                !
 ! D13   D(16,7,15,36)          54.1763         estimate D2E/DX2                !
 ! D14   D(16,7,15,37)         -69.4439         estimate D2E/DX2                !
 ! D15   D(14,7,16,20)         140.3479         estimate D2E/DX2                !
 ! D16   D(14,7,16,22)         -38.0952         estimate D2E/DX2                !
 ! D17   D(15,7,16,20)         -63.5            estimate D2E/DX2                !
 ! D18   D(15,7,16,22)         118.0569         estimate D2E/DX2                !
 ! D19   D(38,8,13,10)          53.5738         estimate D2E/DX2                !
 ! D20   D(38,8,13,15)         165.3639         estimate D2E/DX2                !
 ! D21   D(38,8,13,33)         -72.5743         estimate D2E/DX2                !
 ! D22   D(39,8,13,10)         -69.0051         estimate D2E/DX2                !
 ! D23   D(39,8,13,15)          42.7849         estimate D2E/DX2                !
 ! D24   D(39,8,13,33)         164.8467         estimate D2E/DX2                !
 ! D25   D(21,9,17,18)          55.0823         estimate D2E/DX2                !
 ! D26   D(21,9,17,19)         121.6757         estimate D2E/DX2                !
 ! D27   D(21,9,17,40)         -91.018          estimate D2E/DX2                !
 ! D28   D(25,9,17,18)        -114.4029         estimate D2E/DX2                !
 ! D29   D(25,9,17,19)         -47.8094         estimate D2E/DX2                !
 ! D30   D(25,9,17,40)          99.4968         estimate D2E/DX2                !
 ! D31   D(17,9,21,20)          22.0973         estimate D2E/DX2                !
 ! D32   D(17,9,21,23)        -161.0559         estimate D2E/DX2                !
 ! D33   D(25,9,21,20)        -168.6333         estimate D2E/DX2                !
 ! D34   D(25,9,21,23)           8.2135         estimate D2E/DX2                !
 ! D35   D(17,9,25,27)         165.5094         estimate D2E/DX2                !
 ! D36   D(17,9,25,45)         -13.3301         estimate D2E/DX2                !
 ! D37   D(21,9,25,27)          -4.4203         estimate D2E/DX2                !
 ! D38   D(21,9,25,45)         176.7402         estimate D2E/DX2                !
 ! D39   D(13,10,11,29)         -0.9079         estimate D2E/DX2                !
 ! D40   D(13,10,11,30)        144.3162         estimate D2E/DX2                !
 ! D41   D(14,10,11,29)       -143.4982         estimate D2E/DX2                !
 ! D42   D(14,10,11,30)          1.7259         estimate D2E/DX2                !
 ! D43   D(13,10,12,31)       -139.7577         estimate D2E/DX2                !
 ! D44   D(13,10,12,32)          5.712          estimate D2E/DX2                !
 ! D45   D(14,10,12,31)         -5.2552         estimate D2E/DX2                !
 ! D46   D(14,10,12,32)        140.2145         estimate D2E/DX2                !
 ! D47   D(11,10,13,8)         -71.1081         estimate D2E/DX2                !
 ! D48   D(11,10,13,15)        172.9374         estimate D2E/DX2                !
 ! D49   D(11,10,13,33)         54.2242         estimate D2E/DX2                !
 ! D50   D(12,10,13,8)        -143.3841         estimate D2E/DX2                !
 ! D51   D(12,10,13,15)        100.6614         estimate D2E/DX2                !
 ! D52   D(12,10,13,33)        -18.0518         estimate D2E/DX2                !
 ! D53   D(14,10,13,8)          76.5788         estimate D2E/DX2                !
 ! D54   D(14,10,13,15)        -39.3757         estimate D2E/DX2                !
 ! D55   D(14,10,13,33)       -158.0889         estimate D2E/DX2                !
 ! D56   D(11,10,14,7)         169.6885         estimate D2E/DX2                !
 ! D57   D(11,10,14,34)        -70.0237         estimate D2E/DX2                !
 ! D58   D(11,10,14,35)         53.0995         estimate D2E/DX2                !
 ! D59   D(12,10,14,7)        -117.8254         estimate D2E/DX2                !
 ! D60   D(12,10,14,34)          2.4624         estimate D2E/DX2                !
 ! D61   D(12,10,14,35)        125.5856         estimate D2E/DX2                !
 ! D62   D(13,10,14,7)          21.947          estimate D2E/DX2                !
 ! D63   D(13,10,14,34)        142.2348         estimate D2E/DX2                !
 ! D64   D(13,10,14,35)        -94.642          estimate D2E/DX2                !
 ! D65   D(29,11,12,31)        144.5534         estimate D2E/DX2                !
 ! D66   D(29,11,12,32)         -0.3905         estimate D2E/DX2                !
 ! D67   D(30,11,12,31)          0.4353         estimate D2E/DX2                !
 ! D68   D(30,11,12,32)       -144.5086         estimate D2E/DX2                !
 ! D69   D(8,13,15,7)          -80.4778         estimate D2E/DX2                !
 ! D70   D(8,13,15,36)          37.9413         estimate D2E/DX2                !
 ! D71   D(8,13,15,37)         161.5952         estimate D2E/DX2                !
 ! D72   D(10,13,15,7)          40.2724         estimate D2E/DX2                !
 ! D73   D(10,13,15,36)        158.6915         estimate D2E/DX2                !
 ! D74   D(10,13,15,37)        -77.6546         estimate D2E/DX2                !
 ! D75   D(33,13,15,7)         158.6866         estimate D2E/DX2                !
 ! D76   D(33,13,15,36)        -82.8943         estimate D2E/DX2                !
 ! D77   D(33,13,15,37)         40.7596         estimate D2E/DX2                !
 ! D78   D(7,16,20,1)           -9.8265         estimate D2E/DX2                !
 ! D79   D(7,16,20,21)         177.3207         estimate D2E/DX2                !
 ! D80   D(22,16,20,1)         168.7157         estimate D2E/DX2                !
 ! D81   D(22,16,20,21)         -4.1371         estimate D2E/DX2                !
 ! D82   D(7,16,22,3)           -3.2269         estimate D2E/DX2                !
 ! D83   D(7,16,22,24)         175.4572         estimate D2E/DX2                !
 ! D84   D(20,16,22,3)         178.2344         estimate D2E/DX2                !
 ! D85   D(20,16,22,24)         -3.0814         estimate D2E/DX2                !
 ! D86   D(9,17,18,2)           -2.3907         estimate D2E/DX2                !
 ! D87   D(9,17,18,41)        -142.755          estimate D2E/DX2                !
 ! D88   D(40,17,18,2)         143.0124         estimate D2E/DX2                !
 ! D89   D(40,17,18,41)          2.6481         estimate D2E/DX2                !
 ! D90   D(9,17,19,42)          -0.3998         estimate D2E/DX2                !
 ! D91   D(9,17,19,43)         144.9961         estimate D2E/DX2                !
 ! D92   D(40,17,19,42)       -146.8537         estimate D2E/DX2                !
 ! D93   D(40,17,19,43)         -1.4578         estimate D2E/DX2                !
 ! D94   D(2,18,19,42)           0.1434         estimate D2E/DX2                !
 ! D95   D(2,18,19,43)        -146.0112         estimate D2E/DX2                !
 ! D96   D(41,18,19,42)        145.8903         estimate D2E/DX2                !
 ! D97   D(41,18,19,43)         -0.2644         estimate D2E/DX2                !
 ! D98   D(1,20,21,9)           13.1484         estimate D2E/DX2                !
 ! D99   D(1,20,21,23)        -163.7169         estimate D2E/DX2                !
 ! D100  D(16,20,21,9)        -174.3503         estimate D2E/DX2                !
 ! D101  D(16,20,21,23)          8.7845         estimate D2E/DX2                !
 ! D102  D(9,21,23,24)         176.491          estimate D2E/DX2                !
 ! D103  D(9,21,23,26)          -5.4819         estimate D2E/DX2                !
 ! D104  D(20,21,23,24)         -6.3904         estimate D2E/DX2                !
 ! D105  D(20,21,23,26)        171.6367         estimate D2E/DX2                !
 ! D106  D(3,22,24,23)        -176.0577         estimate D2E/DX2                !
 ! D107  D(3,22,24,44)           1.7964         estimate D2E/DX2                !
 ! D108  D(16,22,24,23)          5.2624         estimate D2E/DX2                !
 ! D109  D(16,22,24,44)       -176.8836         estimate D2E/DX2                !
 ! D110  D(21,23,24,22)         -0.2721         estimate D2E/DX2                !
 ! D111  D(21,23,24,44)       -178.2117         estimate D2E/DX2                !
 ! D112  D(26,23,24,22)       -178.4444         estimate D2E/DX2                !
 ! D113  D(26,23,24,44)          3.616          estimate D2E/DX2                !
 ! D114  D(21,23,26,4)         179.7351         estimate D2E/DX2                !
 ! D115  D(21,23,26,27)         -1.1572         estimate D2E/DX2                !
 ! D116  D(24,23,26,4)          -2.1679         estimate D2E/DX2                !
 ! D117  D(24,23,26,27)        176.9397         estimate D2E/DX2                !
 ! D118  D(9,25,27,26)          -2.7664         estimate D2E/DX2                !
 ! D119  D(9,25,27,28)         179.2589         estimate D2E/DX2                !
 ! D120  D(45,25,27,26)        176.0542         estimate D2E/DX2                !
 ! D121  D(45,25,27,28)         -1.9205         estimate D2E/DX2                !
 ! D122  D(4,26,27,25)        -175.7119         estimate D2E/DX2                !
 ! D123  D(4,26,27,28)           2.0168         estimate D2E/DX2                !
 ! D124  D(23,26,27,25)          5.2497         estimate D2E/DX2                !
 ! D125  D(23,26,27,28)       -177.0217         estimate D2E/DX2                !
 ! D126  D(25,27,28,5)         179.8926         estimate D2E/DX2                !
 ! D127  D(25,27,28,6)          -0.091          estimate D2E/DX2                !
 ! D128  D(26,27,28,5)           2.0396         estimate D2E/DX2                !
 ! D129  D(26,27,28,6)        -177.9439         estimate D2E/DX2                !
 --------------------------------------------------------------------------------
 Trust Radius=3.00D-01 FncErr=1.00D-07 GrdErr=1.00D-06
 Number of steps in this run=    276 maximum allowed number of steps=    276.
 GradGradGradGradGradGradGradGradGradGradGradGradGradGradGradGradGradGrad

                          Input orientation:                          
 ---------------------------------------------------------------------
 Center     Atomic      Atomic             Coordinates (Angstroms)
 Number     Number       Type             X           Y           Z
 ---------------------------------------------------------------------
      1         17           0       -0.812095    1.938882   -1.055606
      2          9           0        1.027169    1.992283    2.006348
      3          9           0       -1.711643   -2.814774    0.691448
      4          8           0        3.191602   -2.906032    0.310834
      5          8           0        5.743489   -2.153614   -0.273062
      6          8           0        6.137407    0.055528   -0.692150
      7          7           0       -2.585395   -0.243755   -0.079263
      8          7           0       -4.553036    1.750723   -1.015067
      9          7           0        2.181624    1.056544   -0.348929
     10          6           0       -4.924930   -0.589210   -0.111845
     11          6           0       -6.275736   -1.069193   -0.591880
     12          6           0       -5.811194   -1.381309    0.835651
     13          6           0       -4.632185    0.887990    0.181320
     14          6           0       -3.616135   -1.190312   -0.620723
     15          6           0       -3.223717    0.792024    0.795731
     16          6           0       -1.236241   -0.561666    0.001739
     17          6           0        1.976300    2.497675   -0.223124
     18          6           0        1.373745    2.973567    1.078999
     19          6           0        2.835557    3.218214    0.830747
     20          6           0       -0.228980    0.373783   -0.292570
     21          6           0        1.146938    0.109977   -0.171251
     22          6           0       -0.782947   -1.856158    0.354273
     23          6           0        1.521328   -1.227053    0.088118
     24          6           0        0.543557   -2.189153    0.344348
     25          6           0        3.474079    0.620409   -0.432714
     26          6           0        2.934178   -1.712508    0.067279
     27          6           0        3.889446   -0.667473   -0.275683
     28          6           0        5.340592   -0.854745   -0.435948
     29          1           0       -7.062108   -0.331412   -0.715195
     30          1           0       -6.302295   -1.888511   -1.302109
     31          1           0       -5.526271   -2.402770    1.060321
     32          1           0       -6.288710   -0.843258    1.647345
     33          1           0       -5.355674    1.303846    0.889743
     34          1           0       -3.461474   -2.206323   -0.261128
     35          1           0       -3.572594   -1.179308   -1.716923
     36          1           0       -2.698663    1.743710    0.728243
     37          1           0       -3.271613    0.449405    1.837178
     38          1           0       -5.389572    1.663252   -1.600640
     39          1           0       -3.716165    1.520446   -1.560518
     40          1           0        1.715629    3.024206   -1.129673
     41          1           0        0.671599    3.796225    1.037726
     42          1           0        3.518921    2.600479    1.399999
     43          1           0        3.166634    4.224104    0.607768
     44          1           0        0.877524   -3.193666    0.566912
     45          1           0        4.223733    1.377661   -0.623183
     46          1           0        6.732714   -2.177458   -0.397685
 ---------------------------------------------------------------------
                    Distance matrix (angstroms):
                    1          2          3          4          5
     1  Cl   0.000000
     2  F    3.572297   0.000000
     3  F    5.143795   5.686638   0.000000
     4  O    6.431947   5.617208   4.918842   0.000000
     5  O    7.767662   6.680408   7.546284   2.723820   0.000000
     6  O    7.209348   6.094870   8.471161   4.295880   2.282787
     7  N    2.976868   4.732891   2.822690   6.372879   8.547247
     8  N    3.745889   6.350275   5.641761   9.133608  11.036886
     9  N    3.200042   2.784906   5.588114   4.142143   4.795597
    10  C    4.919080   6.824832   3.990442   8.451297  10.783715
    11  C    6.254193   8.334017   5.052220   9.686039  12.072257
    12  C    6.292179   7.714588   4.345335   9.146067  11.633417
    13  C    4.150596   6.048014   4.743444   8.696150  10.821850
    14  C    4.224171   6.212140   2.826262   7.082145   9.415486
    15  C    3.249408   4.579983   3.912318   7.420718   9.498941
    16  C    2.747839   3.957795   2.403789   5.019700   7.164248
    17  C    2.963178   2.475241   6.531423   5.564362   5.985708
    18  C    3.225679   1.393919   6.570746   6.201965   6.871005
    19  C    4.301207   2.480970   7.556016   6.156579   6.207334
    20  C    1.836241   3.079363   3.651503   4.777203   6.485253
    21  C    2.822196   2.880861   4.179701   3.675509   5.124694
    22  C    4.048572   4.562496   1.376629   4.111102   6.563261
    23  C    4.095865   3.779937   3.651981   2.378737   4.337696
    24  C    4.564903   4.525542   2.365969   2.743571   5.236578
    25  C    4.527433   3.717315   6.321071   3.615030   3.587606
    26  C    5.350522   4.595884   4.815416   1.245024   2.864024
    27  C    5.431929   4.524886   6.076055   2.417051   2.376152
    28  C    6.785564   5.716292   7.405859   3.063269   1.369642
    29  H    6.658286   8.845494   6.064092  10.621675  12.942149
    30  H    6.697163   8.929025   5.089825   9.683543  12.092565
    31  H    6.749114   7.947266   3.854504   8.764492  11.351100
    32  H    6.711152   7.854378   5.074461   9.793754  12.254746
    33  H    4.983148   6.516244   5.502846   9.545372  11.683217
    34  H    4.983285   6.551157   2.083152   6.714176   9.205122
    35  H    4.216729   6.714131   3.455161   7.269644   9.477521
    36  H    2.603718   3.946792   4.664262   7.515953   9.352095
    37  H    4.078722   4.570407   3.794874   7.440553   9.617738
    38  H    4.618044   7.368391   6.231657   9.908009  11.843816
    39  H    2.977188   5.953518   5.280492   8.415041  10.229434
    40  H    2.751873   3.372458   7.011160   6.278637   6.615683
    41  H    3.167508   2.078188   7.035983   7.197155   7.927346
    42  H    5.022490   2.635600   7.562130   5.622729   5.509014
    43  H    4.880506   3.393282   8.564484   7.136360   6.934791
    44  H    5.641846   5.384091   2.619705   2.345904   5.046274
    45  H    5.085423   4.184521   7.384677   4.504188   3.860330
    46  H    8.619818   7.464540   8.538123   3.684059   0.997329
                    6          7          8          9         10
     6  O    0.000000
     7  N    8.749427   0.000000
     8  N   10.828829   2.953859   0.000000
     9  N    4.094881   4.948532   6.803034   0.000000
    10  C   11.096294   2.365127   2.535626   7.298481   0.000000
    11  C   12.464396   3.816116   3.331472   8.723802   1.511785
    12  C   12.131271   3.540745   3.849382   8.439875   1.520077
    13  C   10.836976   2.353317   1.477131   6.836488   1.534199
    14  C    9.833046   1.500525   3.111748   6.223845   1.527490
    15  C    9.507200   1.498635   2.442372   5.531539   2.371840
    16  C    7.431897   1.388469   4.169193   3.797812   3.690540
    17  C    4.847564   5.324021   6.619467   1.461110   7.560967
    18  C    5.860409   5.231398   6.403686   2.523217   7.333812
    19  C    4.819130   6.496158   7.755763   2.547956   8.695408
    20  C    6.386849   2.445311   4.595152   2.506063   4.797079
    21  C    5.017876   3.750186   5.991142   1.413554   6.112280
    22  C    7.255401   2.456953   5.394280   4.215093   4.356426
    23  C    4.854072   4.226117   6.854346   2.416985   6.480823
    24  C    6.115887   3.708687   6.583760   3.701141   5.715967
    25  C    2.734907   6.130981   8.127196   1.366629   8.491731
    26  C    3.736758   5.713527   8.320085   2.899520   7.940999
    27  C    2.397812   6.491663   8.813051   2.427809   8.816246
    28  C    1.236588   7.957500  10.247327   3.693193  10.274069
    29  H   13.205205   4.522505   3.274241   9.354526   2.235625
    30  H   12.605456   4.244516   4.048003   9.030990   2.236525
    31  H   12.048061   3.822139   4.744041   8.565307   2.241558
    32  H   12.676334   4.129785   4.102407   8.907352   2.240354
    33  H   11.668402   3.317904   2.114764   7.642403   2.184578
    34  H    9.871184   2.156910   4.173505   6.519092   2.186102
    35  H    9.841702   2.128791   3.168430   6.323090   2.180207
    36  H    9.107338   2.148235   2.545168   5.044769   3.332346
    37  H    9.751015   2.150375   3.386853   5.906393   2.758780
    38  H   11.673961   3.716809   1.024861   7.697914   2.739706
    39  H    9.999646   2.566157   1.025133   6.038797   2.830268
    40  H    5.343837   5.502884   6.397738   2.167581   7.628222
    41  H    6.845461   5.308212   5.974517   3.421818   7.202409
    42  H    4.208365   6.894966   8.468242   2.689024   9.151962
    43  H    5.281317   7.315710   8.267074   3.452383   9.442417
    44  H    6.309427   4.594706   7.512697   4.539133   6.396278
    45  H    2.327002   7.020617   8.793431   2.085315   9.371664
    46  H    2.329662   9.521962  11.965781   5.583329  11.768810
                   11         12         13         14         15
    11  C    0.000000
    12  C    1.533317   0.000000
    13  C    2.670143   2.639684   0.000000
    14  C    2.662514   2.641172   2.448463   0.000000
    15  C    3.834633   3.379350   1.539640   2.467790   0.000000
    16  C    5.099655   4.722014   3.696781   2.539006   2.532382
    17  C    8.997479   8.764279   6.813717   6.710787   5.566641
    18  C    8.811941   8.405207   6.420799   6.717577   5.096668
    19  C   10.169631   9.793975   7.849769   7.947716   6.527053
    20  C    6.223747   5.959391   4.458385   3.745250   3.213685
    21  C    7.527514   7.187029   5.841907   4.957786   4.528009
    22  C    5.628965   5.073507   4.730422   3.069352   3.628376
    23  C    7.828252   7.372142   6.507520   5.186264   5.205078
    24  C    6.973779   6.424706   6.023595   4.385440   4.825300
    25  C    9.896413   9.582897   8.133889   7.320191   6.811681
    26  C    9.255855   8.785307   8.001590   6.607014   6.687525
    27  C   10.178030   9.790150   8.674475   7.531677   7.339969
    28  C   11.619354  11.236395  10.142703   8.964915   8.807739
    29  H    1.085315   2.252153   2.862727   3.552656   4.275307
    30  H    1.084626   2.251322   3.563536   2.857836   4.589536
    31  H    2.251642   1.083993   3.521524   2.818614   3.946957
    32  H    2.250632   1.084605   2.809008   3.522391   3.576811
    33  H    2.945002   2.724056   1.094640   3.395339   2.194548
    34  H    3.053282   2.721168   3.337828   1.088810   3.188035
    35  H    2.929987   3.401142   2.999963   1.097120   3.212677
    36  H    4.738206   4.411930   2.184008   3.357075   1.089010
    37  H    4.151050   3.286950   2.187551   2.974667   1.097403
    38  H    3.044526   3.922070   2.085677   3.499735   3.345528
    39  H    3.767744   4.307082   2.067146   2.870789   2.514958
    40  H    8.994835   8.940029   6.824724   6.815343   5.752126
    41  H    8.636745   8.299054   6.109123   6.782379   4.925167
    42  H   10.647506  10.159930   8.417739   8.328411   7.007055
    43  H   10.891120  10.586500   8.493120   8.765332   7.256107
    44  H    7.551511   6.935114   6.867714   5.061312   5.723483
    45  H   10.780859  10.509038   8.905857   8.249729   7.603999
    46  H   13.057019  12.629513  11.785294  10.398215  10.458135
                   16         17         18         19         20
    16  C    0.000000
    17  C    4.441908   0.000000
    18  C    4.524421   1.511645   0.000000
    19  C    5.617320   1.538877   1.502789   0.000000
    20  C    1.405794   3.062515   3.347955   4.329436   0.000000
    21  C    2.482050   2.528168   3.132844   3.676489   1.406223
    22  C    1.416144   5.186781   5.338801   6.250588   2.387032
    23  C    2.838025   3.765298   4.318430   4.694581   2.402327
    24  C    2.435934   4.933673   5.280398   5.893171   2.751567
    25  C    4.875773   2.410684   3.497718   2.958485   3.713908
    26  C    4.326792   4.327529   5.041610   4.990454   3.806267
    27  C    5.134279   3.698791   4.628292   4.175336   4.248050
    28  C    6.597893   4.754206   5.717247   4.946586   5.705258
    29  H    5.874329   9.483601   9.236105  10.627961   6.882409
    30  H    5.396799   9.430693   9.393139  10.683073   6.559139
    31  H    4.786921   9.052633   8.747318  10.078112   6.131953
    32  H    5.321161   9.108835   8.579300  10.020710   6.478023
    33  H    4.608515   7.511428   6.936056   8.412167   5.342834
    34  H    2.779507   7.190162   7.211556   8.382744   4.136055
    35  H    2.965439   6.822160   7.037743   8.178828   3.952294
    36  H    2.825110   4.829994   4.268499   5.728199   3.003014
    37  H    2.921274   5.998404   5.340934   6.780614   3.714722
    38  H    4.976750   7.539886   7.391877   8.716782   5.477726
    39  H    3.595255   5.928554   5.914879   7.178135   3.883682
    40  H    4.780388   1.080285   2.235549   2.266081   3.392195
    41  H    4.868710   2.231192   1.082349   2.249367   3.780719
    42  H    5.879274   2.241601   2.200912   1.082881   4.676508
    43  H    6.531169   2.255623   2.236147   1.082195   5.212080
    44  H    3.422696   5.850028   6.208320   6.709375   3.832721
    45  H    5.827764   2.542722   3.683310   2.725542   4.576432
    46  H    8.140919   6.671643   7.578404   6.768320   7.415191
                   21         22         23         24         25
    21  C    0.000000
    22  C    2.804696   0.000000
    23  C    1.412476   2.403392   0.000000
    24  C    2.432264   1.367698   1.395466   0.000000
    25  C    2.396766   4.987485   2.738178   4.133452   0.000000
    26  C    2.563703   3.730954   1.494070   2.453370   2.446219
    27  C    2.852487   4.862209   2.460379   3.727589   1.362288
    28  C    4.311321   6.254999   3.872988   5.039946   2.379067
    29  H    8.238880   6.549540   8.667344   7.900631  10.582863
    30  H    7.795118   5.762625   7.973665   7.047474  10.130549
    31  H    7.236186   4.826636   7.210835   6.115641   9.611195
    32  H    7.713936   5.745557   7.973405   7.084427  10.088658
    33  H    6.695894   5.584101   7.371649   6.877458   8.954357
    34  H    5.158564   2.770531   5.090114   4.050576   7.491445
    35  H    5.130823   3.539789   5.404488   4.712889   7.385376
    36  H    4.273970   4.094981   5.200338   5.111436   6.380625
    37  H    4.865449   3.702443   5.370475   4.872992   7.119411
    38  H    6.868899   6.117918   7.678952   7.336622   9.000882
    39  H    5.250643   4.865352   6.139877   5.961113   7.333595
    40  H    3.120050   5.680047   4.426508   5.543068   3.058781
    41  H    3.908452   5.876414   5.182385   6.026767   4.483514
    42  H    3.781234   6.281817   4.512362   5.736529   2.698430
    43  H    4.648880   7.254863   5.717708   6.933959   3.763475
    44  H    3.395810   2.142734   2.123981   1.081719   4.721072
    45  H    3.358263   6.039855   3.820141   5.215551   1.082446
    46  H    6.040242   7.560016   5.319569   6.233491   4.295112
                   26         27         28         29         30
    26  C    0.000000
    27  C    1.456797   0.000000
    28  C    2.603809   1.471931   0.000000
    29  H   10.121533  10.965521  12.416877   0.000000
    30  H    9.339092  10.315816  11.720739   1.829301   0.000000
    31  H    8.546449   9.667052  11.078083   3.130779   2.539242
    32  H    9.397546  10.359720  11.814436   2.538056   3.129220
    33  H    8.859824   9.524524  10.992137   2.856888   3.986408
    34  H    6.423089   7.510279   8.906946   4.084854   3.042188
    35  H    6.767995   7.617164   9.010612   3.728149   2.850668
    36  H    6.641627   7.086949   8.528595   5.042747   5.504682
    37  H    6.805751   7.549329   9.002110   4.635961   4.950354
    38  H    9.135783   9.658570  11.083016   2.749559   3.679294
    39  H    7.571577   8.017675   9.430325   3.916540   4.286704
    40  H    5.035277   4.368441   5.354239   9.406414   9.404873
    41  H    6.033835   5.657224   6.752980   8.939818   9.296572
    42  H    4.551914   3.691166   4.315989  11.181601  11.131429
    43  H    5.965696   5.022994   5.622290  11.275199  11.431199
    44  H    2.583271   4.020360   5.137631   8.536630   7.533025
    45  H    3.418894   2.101208   2.503211  11.414885  11.042015
    46  H    3.855029   3.221663   1.920687  13.921416  13.069542
                   31         32         33         34         35
    31  H    0.000000
    32  H    1.832481   0.000000
    33  H    3.714459   2.460604   0.000000
    34  H    2.459310   3.673347   4.151359   0.000000
    35  H    3.609265   4.336878   4.017479   1.785062   0.000000
    36  H    5.029805   4.519468   2.698012   4.142885   3.909812
    37  H    3.717780   3.287839   2.443566   3.389960   3.921088
    38  H    4.861269   4.200053   2.516412   4.526087   3.375660
    39  H    5.053405   4.742939   2.956127   3.955008   2.708089
    40  H    9.310921   9.313353   7.552550   7.410479   6.780833
    41  H    8.765936   8.387034   6.523946   7.402695   7.096280
    42  H   10.342310  10.397602   8.983321   8.636585   8.619256
    43  H   10.940149  10.777867   9.013165   9.275623   8.945292
    44  H    6.471287   7.618836   7.693152   4.526301   5.392318
    45  H   10.591904  10.981768   9.698424   8.487546   8.277504
    46  H   12.347439  13.248386  12.645397  10.195143  10.437244
                   36         37         38         39         40
    36  H    0.000000
    37  H    1.798120   0.000000
    38  H    3.559657   4.216369   0.000000
    39  H    2.514674   3.590138   1.679969   0.000000
    40  H    4.957570   6.348574   7.249682   5.652549   0.000000
    41  H    3.958189   5.233474   6.946103   5.584131   2.526585
    42  H    6.312183   7.136498   9.446877   7.891616   3.135386
    43  H    6.369347   7.563784   9.200201   7.706111   2.562005
    44  H    6.098592   5.665764   8.219758   6.917426   6.499443
    45  H    7.062571   7.943252   9.667089   7.996309   3.042734
    46  H   10.275901  10.582135  12.772939  11.144763   7.263901
                   41         42         43         44         45
    41  H    0.000000
    42  H    3.109388   0.000000
    43  H    2.567712   1.840623   0.000000
    44  H    7.008755   6.422081   7.763054   0.000000
    45  H    4.607139   2.466842   3.276421   5.788823   0.000000
    46  H    8.630319   6.032314   7.396476   6.020496   4.357144
                   46
    46  H    0.000000
 Stoichiometry    C19H18ClF2N3O3
 Framework group  C1[X(C19H18ClF2N3O3)]
 Deg. of freedom   132
 Full point group                 C1      NOp   1
 Largest Abelian subgroup         C1      NOp   1
 Largest concise Abelian subgroup C1      NOp   1
                         Standard orientation:                         
 ---------------------------------------------------------------------
 Center     Atomic      Atomic             Coordinates (Angstroms)
 Number     Number       Type             X           Y           Z
 ---------------------------------------------------------------------
      1         17           0       -0.812095    1.938882   -1.055606
      2          9           0        1.027169    1.992283    2.006348
      3          9           0       -1.711643   -2.814774    0.691448
      4          8           0        3.191602   -2.906032    0.310834
      5          8           0        5.743489   -2.153614   -0.273062
      6          8           0        6.137407    0.055528   -0.692150
      7          7           0       -2.585395   -0.243755   -0.079263
      8          7           0       -4.553036    1.750723   -1.015067
      9          7           0        2.181624    1.056544   -0.348929
     10          6           0       -4.924930   -0.589210   -0.111845
     11          6           0       -6.275736   -1.069193   -0.591880
     12          6           0       -5.811194   -1.381309    0.835651
     13          6           0       -4.632185    0.887990    0.181320
     14          6           0       -3.616135   -1.190312   -0.620723
     15          6           0       -3.223717    0.792024    0.795731
     16          6           0       -1.236241   -0.561666    0.001739
     17          6           0        1.976300    2.497675   -0.223124
     18          6           0        1.373745    2.973567    1.078999
     19          6           0        2.835557    3.218214    0.830747
     20          6           0       -0.228980    0.373783   -0.292570
     21          6           0        1.146938    0.109977   -0.171251
     22          6           0       -0.782947   -1.856158    0.354273
     23          6           0        1.521328   -1.227053    0.088118
     24          6           0        0.543557   -2.189153    0.344348
     25          6           0        3.474079    0.620409   -0.432714
     26          6           0        2.934178   -1.712508    0.067279
     27          6           0        3.889446   -0.667473   -0.275683
     28          6           0        5.340592   -0.854745   -0.435948
     29          1           0       -7.062108   -0.331412   -0.715195
     30          1           0       -6.302295   -1.888511   -1.302109
     31          1           0       -5.526271   -2.402770    1.060321
     32          1           0       -6.288710   -0.843258    1.647345
     33          1           0       -5.355674    1.303846    0.889743
     34          1           0       -3.461474   -2.206323   -0.261128
     35          1           0       -3.572594   -1.179308   -1.716923
     36          1           0       -2.698663    1.743710    0.728243
     37          1           0       -3.271613    0.449405    1.837178
     38          1           0       -5.389572    1.663252   -1.600640
     39          1           0       -3.716165    1.520446   -1.560518
     40          1           0        1.715629    3.024206   -1.129673
     41          1           0        0.671599    3.796225    1.037726
     42          1           0        3.518921    2.600479    1.399999
     43          1           0        3.166634    4.224104    0.607768
     44          1           0        0.877524   -3.193666    0.566912
     45          1           0        4.223733    1.377661   -0.623183
     46          1           0        6.732714   -2.177458   -0.397685
 ---------------------------------------------------------------------
 Rotational constants (GHZ):      0.3351074      0.0979405      0.0815029
 Standard basis: 3-21G (6D, 7F)
 There are   292 symmetry adapted cartesian basis functions of A   symmetry.
 There are   292 symmetry adapted basis functions of A   symmetry.
   292 basis functions,   486 primitive gaussians,   292 cartesian basis functions
   106 alpha electrons      106 beta electrons
       nuclear repulsion energy      2896.1917936614 Hartrees.
 NAtoms=   46 NActive=   46 NUniq=   46 SFac= 1.00D+00 NAtFMM=   60 NAOKFM=F Big=F
 Integral buffers will be    131072 words long.
 Raffenetti 2 integral format.
 Two-electron integral symmetry is turned on.
 One-electron integrals computed using PRISM.
 PrsmSu:  requested number of processors reduced to:   9 ShMem   1 Linda.
 NBasis=   292 RedAO= T EigKep=  1.28D-03  NBF=   292
 NBsUse=   292 1.00D-06 EigRej= -1.00D+00 NBFU=   292
 ExpMin= 1.67D-01 ExpMax= 1.38D+03 ExpMxC= 1.38D+03 IAcc=1 IRadAn=         1 AccDes= 0.00D+00
 Harris functional with IExCor=  402 and IRadAn=       1 diagonalized for initial guess.
 HarFok:  IExCor=  402 AccDes= 0.00D+00 IRadAn=         1 IDoV= 1 UseB2=F ITyADJ=14
 ICtDFT=  3500011 ScaDFX=  1.000000  1.000000  1.000000  1.000000
 FoFCou: FMM=F IPFlag=           0 FMFlag=      100000 FMFlg1=           0
         NFxFlg=           0 DoJE=T BraDBF=F KetDBF=T FulRan=T
         wScrn=  0.000000 ICntrl=     500 IOpCl=  0 I1Cent=   200000004 NGrid=           0
         NMat0=    1 NMatS0=      1 NMatT0=    0 NMatD0=    1 NMtDS0=    0 NMtDT0=    0
 Petite list used in FoFCou.
 Requested convergence on RMS density matrix=1.00D-08 within 128 cycles.
 Requested convergence on MAX density matrix=1.00D-06.
 Requested convergence on             energy=1.00D-06.
 No special actions if energy rises.
 Integral accuracy reduced to 1.0D-05 until final iterations.
 EnCoef did     1 forward-backward iterations
 Initial convergence to 1.0D-05 achieved.  Increase integral accuracy.
 SCF Done:  E(RB3LYP) =  -1775.09504233     A.U. after   17 cycles
            NFock= 17  Conv=0.90D-08     -V/T= 2.0068

 **********************************************************************

            Population analysis using the SCF density.

 **********************************************************************

 Orbital symmetries:
       Occupied  (A) (A) (A) (A) (A) (A) (A) (A) (A) (A) (A) (A)
                 (A) (A) (A) (A) (A) (A) (A) (A) (A) (A) (A) (A)
                 (A) (A) (A) (A) (A) (A) (A) (A) (A) (A) (A) (A)
                 (A) (A) (A) (A) (A) (A) (A) (A) (A) (A) (A) (A)
                 (A) (A) (A) (A) (A) (A) (A) (A) (A) (A) (A) (A)
                 (A) (A) (A) (A) (A) (A) (A) (A) (A) (A) (A) (A)
                 (A) (A) (A) (A) (A) (A) (A) (A) (A) (A) (A) (A)
                 (A) (A) (A) (A) (A) (A) (A) (A) (A) (A) (A) (A)
                 (A) (A) (A) (A) (A) (A) (A) (A) (A) (A)
       Virtual   (A) (A) (A) (A) (A) (A) (A) (A) (A) (A) (A) (A)
                 (A) (A) (A) (A) (A) (A) (A) (A) (A) (A) (A) (A)
                 (A) (A) (A) (A) (A) (A) (A) (A) (A) (A) (A) (A)
                 (A) (A) (A) (A) (A) (A) (A) (A) (A) (A) (A) (A)
                 (A) (A) (A) (A) (A) (A) (A) (A) (A) (A) (A) (A)
                 (A) (A) (A) (A) (A) (A) (A) (A) (A) (A) (A) (A)
                 (A) (A) (A) (A) (A) (A) (A) (A) (A) (A) (A) (A)
                 (A) (A) (A) (A) (A) (A) (A) (A) (A) (A) (A) (A)
                 (A) (A) (A) (A) (A) (A) (A) (A) (A) (A) (A) (A)
                 (A) (A) (A) (A) (A) (A) (A) (A) (A) (A) (A) (A)
                 (A) (A) (A) (A) (A) (A) (A) (A) (A) (A) (A) (A)
                 (A) (A) (A) (A) (A) (A) (A) (A) (A) (A) (A) (A)
                 (A) (A) (A) (A) (A) (A) (A) (A) (A) (A) (A) (A)
                 (A) (A) (A) (A) (A) (A) (A) (A) (A) (A) (A) (A)
                 (A) (A) (A) (A) (A) (A) (A) (A) (A) (A) (A) (A)
                 (A) (A) (A) (A) (A) (A)
 The electronic state is 1-A.
 Alpha  occ. eigenvalues -- -100.83884 -24.58440 -24.56357 -19.07413 -19.02132
 Alpha  occ. eigenvalues --  -19.00803 -14.35264 -14.27682 -14.21805 -10.25761
 Alpha  occ. eigenvalues --  -10.23475 -10.22532 -10.21718 -10.21593 -10.20831
 Alpha  occ. eigenvalues --  -10.20601 -10.20385 -10.20331 -10.16416 -10.15990
 Alpha  occ. eigenvalues --  -10.15907 -10.15820 -10.15666 -10.14785 -10.14512
 Alpha  occ. eigenvalues --  -10.14433 -10.13399 -10.13029  -9.40361  -7.17728
 Alpha  occ. eigenvalues --   -7.16546  -7.16530  -1.21836  -1.19862  -1.09714
 Alpha  occ. eigenvalues --   -1.02891  -1.02025  -1.00875  -0.96462  -0.91078
 Alpha  occ. eigenvalues --   -0.89908  -0.87642  -0.85809  -0.85374  -0.81943
 Alpha  occ. eigenvalues --   -0.78986  -0.76486  -0.73378  -0.71826  -0.69263
 Alpha  occ. eigenvalues --   -0.66848  -0.66117  -0.63737  -0.61879  -0.61081
 Alpha  occ. eigenvalues --   -0.60763  -0.60575  -0.57152  -0.56548  -0.56043
 Alpha  occ. eigenvalues --   -0.55350  -0.54308  -0.52644  -0.52091  -0.49673
 Alpha  occ. eigenvalues --   -0.49496  -0.48545  -0.48313  -0.47607  -0.46444
 Alpha  occ. eigenvalues --   -0.46140  -0.45644  -0.45403  -0.44944  -0.44747
 Alpha  occ. eigenvalues --   -0.44339  -0.44284  -0.43275  -0.42511  -0.42151
 Alpha  occ. eigenvalues --   -0.41662  -0.40615  -0.40177  -0.39602  -0.38605
 Alpha  occ. eigenvalues --   -0.37932  -0.37712  -0.37485  -0.37331  -0.36803
 Alpha  occ. eigenvalues --   -0.36684  -0.35276  -0.33891  -0.33182  -0.31725
 Alpha  occ. eigenvalues --   -0.30738  -0.30471  -0.29604  -0.29295  -0.28178
 Alpha  occ. eigenvalues --   -0.26804  -0.26587  -0.23383  -0.22800  -0.21874
 Alpha  occ. eigenvalues --   -0.20361
 Alpha virt. eigenvalues --   -0.05576  -0.04245  -0.02151   0.01002   0.03151
 Alpha virt. eigenvalues --    0.06827   0.09214   0.09880   0.10243   0.10500
 Alpha virt. eigenvalues --    0.10677   0.10894   0.11402   0.12081   0.13112
 Alpha virt. eigenvalues --    0.13706   0.14217   0.15147   0.15437   0.16103
 Alpha virt. eigenvalues --    0.16930   0.17244   0.17930   0.18669   0.18978
 Alpha virt. eigenvalues --    0.19773   0.20578   0.20994   0.21067   0.21861
 Alpha virt. eigenvalues --    0.22763   0.23260   0.23459   0.24506   0.24785
 Alpha virt. eigenvalues --    0.25911   0.26140   0.27255   0.27741   0.28235
 Alpha virt. eigenvalues --    0.29350   0.29625   0.30131   0.30542   0.33273
 Alpha virt. eigenvalues --    0.35427   0.36409   0.36673   0.39236   0.40223
 Alpha virt. eigenvalues --    0.42630   0.43527   0.49482   0.50447   0.52590
 Alpha virt. eigenvalues --    0.55264   0.55981   0.57597   0.61520   0.62230
 Alpha virt. eigenvalues --    0.63604   0.64379   0.65646   0.66570   0.67190
 Alpha virt. eigenvalues --    0.67695   0.68626   0.69293   0.69965   0.70421
 Alpha virt. eigenvalues --    0.71303   0.71697   0.72141   0.72476   0.73168
 Alpha virt. eigenvalues --    0.73628   0.74084   0.74147   0.75023   0.75494
 Alpha virt. eigenvalues --    0.76192   0.76476   0.77173   0.77414   0.78401
 Alpha virt. eigenvalues --    0.79968   0.80952   0.81646   0.83054   0.83537
 Alpha virt. eigenvalues --    0.84534   0.85951   0.86720   0.87185   0.88094
 Alpha virt. eigenvalues --    0.88360   0.90441   0.92673   0.93802   0.94841
 Alpha virt. eigenvalues --    0.95986   0.97139   0.97511   0.98861   0.99880
 Alpha virt. eigenvalues --    1.00225   1.00803   1.01494   1.02122   1.03157
 Alpha virt. eigenvalues --    1.03517   1.05009   1.05690   1.06588   1.06942
 Alpha virt. eigenvalues --    1.07902   1.08270   1.08830   1.10055   1.11081
 Alpha virt. eigenvalues --    1.12794   1.14649   1.15951   1.17974   1.19756
 Alpha virt. eigenvalues --    1.21005   1.25995   1.27297   1.28997   1.31492
 Alpha virt. eigenvalues --    1.31708   1.34199   1.35484   1.36274   1.37728
 Alpha virt. eigenvalues --    1.40438   1.41513   1.43810   1.44447   1.45549
 Alpha virt. eigenvalues --    1.46734   1.48261   1.50687   1.52405   1.54752
 Alpha virt. eigenvalues --    1.57083   1.58701   1.60062   1.62054   1.63349
 Alpha virt. eigenvalues --    1.65329   1.67580   1.68878   1.70309   1.72964
 Alpha virt. eigenvalues --    1.75048   1.78360   1.80990   1.82049   1.85551
 Alpha virt. eigenvalues --    1.87021   1.87905   1.89275   1.92028   1.94595
 Alpha virt. eigenvalues --    1.95767   1.98046   2.00361   2.01432   2.03407
 Alpha virt. eigenvalues --    2.04709   2.07482   2.07856   2.14740   2.22442
 Alpha virt. eigenvalues --    2.26570   2.33336   2.40240   2.73754   2.88650
 Alpha virt. eigenvalues --    2.99679   3.14378   3.43913   3.57207   3.62043
 Alpha virt. eigenvalues --    3.99779
          Condensed to atoms (all electrons):
               1          2          3          4          5          6
     1  Cl  16.826601  -0.000215  -0.000004   0.000000   0.000000   0.000000
     2  F   -0.000215   9.070269   0.000000   0.000000   0.000000   0.000000
     3  F   -0.000004   0.000000   9.071815   0.000000   0.000000   0.000000
     4  O    0.000000   0.000000   0.000000   8.068864  -0.000917  -0.000001
     5  O    0.000000   0.000000   0.000000  -0.000917   8.228478  -0.061414
     6  O    0.000000   0.000000   0.000000  -0.000001  -0.061414   8.139191
     7  N    0.004887   0.000000  -0.002515   0.000000   0.000000   0.000000
     8  N   -0.000627   0.000000   0.000000   0.000000   0.000000   0.000000
     9  N   -0.000962  -0.002166   0.000000  -0.000022  -0.000001   0.000092
    10  C   -0.000058   0.000000   0.000074   0.000000   0.000000   0.000000
    11  C    0.000000   0.000000  -0.000001   0.000000   0.000000   0.000000
    12  C    0.000000   0.000000  -0.000006   0.000000   0.000000   0.000000
    13  C   -0.000100   0.000000  -0.000001   0.000000   0.000000   0.000000
    14  C    0.000114   0.000000  -0.008909   0.000000   0.000000   0.000000
    15  C   -0.009325  -0.000001  -0.000043   0.000000   0.000000   0.000000
    16  C   -0.078265  -0.000205  -0.060333  -0.000005   0.000000   0.000000
    17  C   -0.014564  -0.033255   0.000000   0.000000   0.000000   0.000004
    18  C   -0.009955   0.280710   0.000000   0.000000   0.000000   0.000000
    19  C    0.001853  -0.030211   0.000000   0.000000   0.000000  -0.000001
    20  C    0.226404   0.000454   0.002382   0.000002   0.000000   0.000000
    21  C   -0.065402   0.008764  -0.000184   0.003077  -0.000002   0.000002
    22  C    0.002047   0.000009   0.309752   0.000778   0.000000   0.000000
    23  C    0.002056  -0.000189   0.002881  -0.123915   0.000110  -0.000017
    24  C   -0.000184  -0.000012  -0.060267   0.003526  -0.000001   0.000000
    25  C    0.000066  -0.000006   0.000000   0.003439   0.003357   0.003396
    26  C    0.000001   0.000015  -0.000005   0.631140   0.001950   0.001999
    27  C    0.000002  -0.000011   0.000000  -0.113317  -0.093876  -0.114603
    28  C    0.000000   0.000000   0.000000  -0.004075   0.223924   0.518912
    29  H    0.000000   0.000000   0.000000   0.000000   0.000000   0.000000
    30  H    0.000000   0.000000   0.000000   0.000000   0.000000   0.000000
    31  H    0.000000   0.000000  -0.000017   0.000000   0.000000   0.000000
    32  H    0.000000   0.000000   0.000000   0.000000   0.000000   0.000000
    33  H   -0.000008   0.000000   0.000000   0.000000   0.000000   0.000000
    34  H    0.000018   0.000000   0.028726   0.000000   0.000000   0.000000
    35  H   -0.000062   0.000000   0.000103   0.000000   0.000000   0.000000
    36  H    0.002510   0.000015   0.000000   0.000000   0.000000   0.000000
    37  H    0.000365   0.000000  -0.000001   0.000000   0.000000   0.000000
    38  H    0.000022   0.000000   0.000000   0.000000   0.000000   0.000000
    39  H    0.003725   0.000000   0.000000   0.000000   0.000000   0.000000
    40  H    0.000304   0.000600   0.000000   0.000000   0.000000   0.000000
    41  H    0.002870  -0.029725   0.000000   0.000000   0.000000   0.000000
    42  H   -0.000032   0.000072   0.000000   0.000000   0.000000  -0.000001
    43  H   -0.000005   0.000642   0.000000   0.000000   0.000000   0.000000
    44  H    0.000004   0.000000  -0.001894   0.019992   0.000001   0.000000
    45  H    0.000003   0.000005   0.000000  -0.000002   0.000275   0.022048
    46  H    0.000000   0.000000   0.000000   0.000199   0.238096   0.004143
               7          8          9         10         11         12
     1  Cl   0.004887  -0.000627  -0.000962  -0.000058   0.000000   0.000000
     2  F    0.000000   0.000000  -0.002166   0.000000   0.000000   0.000000
     3  F   -0.002515   0.000000   0.000000   0.000074  -0.000001  -0.000006
     4  O    0.000000   0.000000  -0.000022   0.000000   0.000000   0.000000
     5  O    0.000000   0.000000  -0.000001   0.000000   0.000000   0.000000
     6  O    0.000000   0.000000   0.000092   0.000000   0.000000   0.000000
     7  N    7.198836  -0.002109  -0.000003  -0.042491   0.001897   0.000413
     8  N   -0.002109   6.856854   0.000000  -0.074972  -0.004238   0.003139
     9  N   -0.000003   0.000000   7.367444   0.000000   0.000000   0.000000
    10  C   -0.042491  -0.074972   0.000000   5.911091   0.149467   0.102487
    11  C    0.001897  -0.004238   0.000000   0.149467   5.478743   0.084952
    12  C    0.000413   0.003139   0.000000   0.102487   0.084952   5.505926
    13  C   -0.064341   0.308593   0.000000   0.178856  -0.031696  -0.028704
    14  C    0.269197   0.005097   0.000000   0.269313  -0.029216  -0.037433
    15  C    0.270629  -0.058735   0.000000  -0.105870   0.003701   0.002585
    16  C    0.344814  -0.000081   0.003287   0.003974  -0.000043  -0.000034
    17  C    0.000001   0.000000   0.275040   0.000000   0.000000   0.000000
    18  C    0.000000   0.000000  -0.040225   0.000000   0.000000   0.000000
    19  C    0.000000   0.000000  -0.034665   0.000000   0.000000   0.000000
    20  C   -0.077038   0.000006  -0.050416  -0.000104   0.000001   0.000001
    21  C    0.003831   0.000000   0.196490   0.000000   0.000000   0.000000
    22  C   -0.078600  -0.000002  -0.000373   0.000120  -0.000001  -0.000003
    23  C   -0.000345   0.000000  -0.023362   0.000000   0.000000   0.000000
    24  C    0.004964   0.000000   0.005626   0.000000   0.000000   0.000000
    25  C    0.000000   0.000000   0.240816   0.000000   0.000000   0.000000
    26  C    0.000000   0.000000  -0.036116   0.000000   0.000000   0.000000
    27  C    0.000000   0.000000  -0.015015   0.000000   0.000000   0.000000
    28  C    0.000000   0.000000   0.004565   0.000000   0.000000   0.000000
    29  H   -0.000020   0.000863   0.000000  -0.030891   0.378562  -0.021558
    30  H    0.000012   0.000037   0.000000  -0.030385   0.382083  -0.022878
    31  H    0.000043  -0.000026   0.000000  -0.028007  -0.021316   0.374588
    32  H   -0.000015   0.000027   0.000000  -0.034690  -0.024426   0.380714
    33  H    0.002205  -0.036259   0.000000  -0.064127   0.000633   0.000153
    34  H   -0.036325   0.000006   0.000000  -0.029984   0.002373  -0.006464
    35  H   -0.045796   0.002344   0.000000  -0.047745  -0.004620   0.004739
    36  H   -0.036753   0.003079   0.000001   0.006748  -0.000057  -0.000014
    37  H   -0.042981   0.002232   0.000000  -0.001252  -0.000162   0.000555
    38  H   -0.000037   0.321435   0.000000  -0.001615   0.003137   0.000006
    39  H    0.010334   0.320928   0.000000  -0.001614  -0.000115  -0.000027
    40  H    0.000000   0.000000  -0.031424   0.000000   0.000000   0.000000
    41  H    0.000000   0.000000   0.001003   0.000000   0.000000   0.000000
    42  H    0.000000   0.000000  -0.002822   0.000000   0.000000   0.000000
    43  H    0.000000   0.000000   0.001165   0.000000   0.000000   0.000000
    44  H   -0.000008   0.000000  -0.000005   0.000000   0.000000   0.000000
    45  H    0.000000   0.000000  -0.032241   0.000000   0.000000   0.000000
    46  H    0.000000   0.000000   0.000000   0.000000   0.000000   0.000000
              13         14         15         16         17         18
     1  Cl  -0.000100   0.000114  -0.009325  -0.078265  -0.014564  -0.009955
     2  F    0.000000   0.000000  -0.000001  -0.000205  -0.033255   0.280710
     3  F   -0.000001  -0.008909  -0.000043  -0.060333   0.000000   0.000000
     4  O    0.000000   0.000000   0.000000  -0.000005   0.000000   0.000000
     5  O    0.000000   0.000000   0.000000   0.000000   0.000000   0.000000
     6  O    0.000000   0.000000   0.000000   0.000000   0.000004   0.000000
     7  N   -0.064341   0.269197   0.270629   0.344814   0.000001   0.000000
     8  N    0.308593   0.005097  -0.058735  -0.000081   0.000000   0.000000
     9  N    0.000000   0.000000   0.000000   0.003287   0.275040  -0.040225
    10  C    0.178856   0.269313  -0.105870   0.003974   0.000000   0.000000
    11  C   -0.031696  -0.029216   0.003701  -0.000043   0.000000   0.000000
    12  C   -0.028704  -0.037433   0.002585  -0.000034   0.000000   0.000000
    13  C    5.343806  -0.083437   0.259102   0.004012   0.000000   0.000000
    14  C   -0.083437   5.232587  -0.082895  -0.052070   0.000000   0.000000
    15  C    0.259102  -0.082895   5.266313  -0.052999   0.000000  -0.000003
    16  C    0.004012  -0.052070  -0.052999   5.375562   0.000272  -0.000063
    17  C    0.000000   0.000000   0.000000   0.000272   5.648911   0.005583
    18  C    0.000000   0.000000  -0.000003  -0.000063   0.005583   5.317935
    19  C    0.000000   0.000000   0.000000   0.000003   0.070806   0.035650
    20  C    0.000127   0.001675  -0.003295   0.202698   0.000555  -0.001406
    21  C    0.000001  -0.000043  -0.000047  -0.023068  -0.062291  -0.001989
    22  C   -0.000105  -0.001775   0.000060   0.122455  -0.000004  -0.000004
    23  C    0.000000   0.000001   0.000004  -0.034953   0.001417   0.000439
    24  C    0.000001   0.000039  -0.000052  -0.079203  -0.000067  -0.000001
    25  C    0.000000   0.000000   0.000000  -0.000061  -0.070589   0.004547
    26  C    0.000000   0.000000   0.000000  -0.000993  -0.000010   0.000016
    27  C    0.000000   0.000000   0.000000  -0.000003   0.002509  -0.000266
    28  C    0.000000   0.000000   0.000000   0.000000  -0.000055   0.000000
    29  H   -0.003356   0.001727   0.000070   0.000000   0.000000   0.000000
    30  H    0.001648  -0.003888  -0.000058  -0.000001   0.000000   0.000000
    31  H    0.001383  -0.002966   0.000026  -0.000008   0.000000   0.000000
    32  H   -0.002713   0.002326   0.000370   0.000000   0.000000   0.000000
    33  H    0.387198   0.004324  -0.030581  -0.000045   0.000000   0.000000
    34  H    0.004050   0.329129   0.001482  -0.007154   0.000000   0.000000
    35  H   -0.000622   0.357152   0.003577  -0.000880   0.000000   0.000000
    36  H   -0.028649   0.002342   0.355575  -0.002311  -0.000004   0.000018
    37  H   -0.044549   0.002005   0.354455  -0.001265   0.000000   0.000000
    38  H   -0.051868  -0.000338   0.005823   0.000003   0.000000   0.000000
    39  H   -0.054987   0.002525  -0.008820   0.000132   0.000000   0.000000
    40  H    0.000000   0.000000   0.000000  -0.000005   0.364671  -0.025623
    41  H    0.000000   0.000000   0.000000  -0.000010  -0.049384   0.349386
    42  H    0.000000   0.000000   0.000000   0.000000  -0.026046  -0.021940
    43  H    0.000000   0.000000   0.000000   0.000000  -0.018249  -0.017840
    44  H    0.000000  -0.000001   0.000000   0.004912   0.000001   0.000000
    45  H    0.000000   0.000000   0.000000   0.000000  -0.001167  -0.000103
    46  H    0.000000   0.000000   0.000000   0.000000   0.000000   0.000000
              19         20         21         22         23         24
     1  Cl   0.001853   0.226404  -0.065402   0.002047   0.002056  -0.000184
     2  F   -0.030211   0.000454   0.008764   0.000009  -0.000189  -0.000012
     3  F    0.000000   0.002382  -0.000184   0.309752   0.002881  -0.060267
     4  O    0.000000   0.000002   0.003077   0.000778  -0.123915   0.003526
     5  O    0.000000   0.000000  -0.000002   0.000000   0.000110  -0.000001
     6  O   -0.000001   0.000000   0.000002   0.000000  -0.000017   0.000000
     7  N    0.000000  -0.077038   0.003831  -0.078600  -0.000345   0.004964
     8  N    0.000000   0.000006   0.000000  -0.000002   0.000000   0.000000
     9  N   -0.034665  -0.050416   0.196490  -0.000373  -0.023362   0.005626
    10  C    0.000000  -0.000104   0.000000   0.000120   0.000000   0.000000
    11  C    0.000000   0.000001   0.000000  -0.000001   0.000000   0.000000
    12  C    0.000000   0.000001   0.000000  -0.000003   0.000000   0.000000
    13  C    0.000000   0.000127   0.000001  -0.000105   0.000000   0.000001
    14  C    0.000000   0.001675  -0.000043  -0.001775   0.000001   0.000039
    15  C    0.000000  -0.003295  -0.000047   0.000060   0.000004  -0.000052
    16  C    0.000003   0.202698  -0.023068   0.122455  -0.034953  -0.079203
    17  C    0.070806   0.000555  -0.062291  -0.000004   0.001417  -0.000067
    18  C    0.035650  -0.001406  -0.001989  -0.000004   0.000439  -0.000001
    19  C    5.741879   0.000446   0.004022   0.000000  -0.000136   0.000001
    20  C    0.000446   5.792828   0.292146  -0.038719  -0.044130  -0.047239
    21  C    0.004022   0.292146   5.141275  -0.038877   0.291217  -0.052923
    22  C    0.000000  -0.038719  -0.038877   5.327313  -0.018555   0.135647
    23  C   -0.000136  -0.044130   0.291217  -0.018555   6.048247   0.223680
    24  C    0.000001  -0.047239  -0.052923   0.135647   0.223680   5.758131
    25  C   -0.012251   0.002446  -0.068516   0.000015  -0.013828  -0.001320
    26  C   -0.000015   0.006544   0.001506   0.009325  -0.017741  -0.077796
    27  C    0.000735  -0.000836  -0.025322  -0.000022  -0.168328   0.015818
    28  C   -0.000008  -0.000003  -0.000574   0.000000   0.005773   0.000001
    29  H    0.000000   0.000000   0.000000   0.000000   0.000000   0.000000
    30  H    0.000000   0.000000   0.000000   0.000000   0.000000   0.000000
    31  H    0.000000   0.000000   0.000000   0.000000   0.000000   0.000000
    32  H    0.000000   0.000000   0.000000   0.000000   0.000000   0.000000
    33  H    0.000000  -0.000002   0.000000   0.000001   0.000000   0.000000
    34  H    0.000000  -0.000372   0.000008   0.001084  -0.000017   0.000217
    35  H    0.000000   0.000911  -0.000003  -0.000040  -0.000005   0.000061
    36  H    0.000000   0.001311  -0.000077  -0.000370  -0.000001   0.000013
    37  H    0.000000  -0.000180   0.000020   0.001492  -0.000003  -0.000021
    38  H    0.000000   0.000001   0.000000   0.000000   0.000000   0.000000
    39  H    0.000000  -0.000329   0.000003   0.000016   0.000000   0.000000
    40  H   -0.017808   0.000089   0.001791   0.000000  -0.000061   0.000000
    41  H   -0.046184  -0.000491   0.000515   0.000000  -0.000004   0.000000
    42  H    0.362845  -0.000021   0.000151   0.000000  -0.000008   0.000000
    43  H    0.353463  -0.000002  -0.000050   0.000000   0.000000   0.000000
    44  H    0.000000  -0.000585   0.003646  -0.033255  -0.059827   0.369147
    45  H    0.000434  -0.000048   0.003060   0.000000  -0.000515  -0.000001
    46  H    0.000000   0.000000   0.000000   0.000000   0.000005   0.000000
              25         26         27         28         29         30
     1  Cl   0.000066   0.000001   0.000002   0.000000   0.000000   0.000000
     2  F   -0.000006   0.000015  -0.000011   0.000000   0.000000   0.000000
     3  F    0.000000  -0.000005   0.000000   0.000000   0.000000   0.000000
     4  O    0.003439   0.631140  -0.113317  -0.004075   0.000000   0.000000
     5  O    0.003357   0.001950  -0.093876   0.223924   0.000000   0.000000
     6  O    0.003396   0.001999  -0.114603   0.518912   0.000000   0.000000
     7  N    0.000000   0.000000   0.000000   0.000000  -0.000020   0.000012
     8  N    0.000000   0.000000   0.000000   0.000000   0.000863   0.000037
     9  N    0.240816  -0.036116  -0.015015   0.004565   0.000000   0.000000
    10  C    0.000000   0.000000   0.000000   0.000000  -0.030891  -0.030385
    11  C    0.000000   0.000000   0.000000   0.000000   0.378562   0.382083
    12  C    0.000000   0.000000   0.000000   0.000000  -0.021558  -0.022878
    13  C    0.000000   0.000000   0.000000   0.000000  -0.003356   0.001648
    14  C    0.000000   0.000000   0.000000   0.000000   0.001727  -0.003888
    15  C    0.000000   0.000000   0.000000   0.000000   0.000070  -0.000058
    16  C   -0.000061  -0.000993  -0.000003   0.000000   0.000000  -0.000001
    17  C   -0.070589  -0.000010   0.002509  -0.000055   0.000000   0.000000
    18  C    0.004547   0.000016  -0.000266   0.000000   0.000000   0.000000
    19  C   -0.012251  -0.000015   0.000735  -0.000008   0.000000   0.000000
    20  C    0.002446   0.006544  -0.000836  -0.000003   0.000000   0.000000
    21  C   -0.068516   0.001506  -0.025322  -0.000574   0.000000   0.000000
    22  C    0.000015   0.009325  -0.000022   0.000000   0.000000   0.000000
    23  C   -0.013828  -0.017741  -0.168328   0.005773   0.000000   0.000000
    24  C   -0.001320  -0.077796   0.015818   0.000001   0.000000   0.000000
    25  C    5.141111  -0.027835   0.300918  -0.094402   0.000000   0.000000
    26  C   -0.027835   5.184063  -0.057498  -0.037364   0.000000   0.000000
    27  C    0.300918  -0.057498   6.462295   0.058485   0.000000   0.000000
    28  C   -0.094402  -0.037364   0.058485   4.685557   0.000000   0.000000
    29  H    0.000000   0.000000   0.000000   0.000000   0.496570  -0.021503
    30  H    0.000000   0.000000   0.000000   0.000000  -0.021503   0.491554
    31  H    0.000000   0.000000   0.000000   0.000000   0.001147  -0.003391
    32  H    0.000000   0.000000   0.000000   0.000000  -0.003425   0.001247
    33  H    0.000000   0.000000   0.000000   0.000000   0.000955  -0.000056
    34  H    0.000000   0.000000   0.000000   0.000000  -0.000050   0.000161
    35  H    0.000000   0.000000   0.000000   0.000000   0.000164   0.001240
    36  H    0.000000   0.000000   0.000000   0.000000  -0.000001   0.000001
    37  H    0.000000   0.000000   0.000000   0.000000   0.000000   0.000001
    38  H    0.000000   0.000000   0.000000   0.000000   0.001245  -0.000082
    39  H    0.000000   0.000000   0.000000   0.000000   0.000006  -0.000004
    40  H   -0.000094   0.000005  -0.000081   0.000001   0.000000   0.000000
    41  H   -0.000030   0.000000   0.000001   0.000000   0.000000   0.000000
    42  H    0.003803   0.000001   0.000009   0.000024   0.000000   0.000000
[...]
    20  C    1.836241   3.079363   3.651503   4.777203   6.485253
    21  C    2.822196   2.880861   4.179701   3.675509   5.124694
    22  C    4.048572   4.562496   1.376629   4.111102   6.563261
    23  C    4.095865   3.779937   3.651981   2.378737   4.337696
    24  C    4.564903   4.525542   2.365969   2.743571   5.236578
    25  C    4.527433   3.717315   6.321071   3.615030   3.587606
    26  C    5.350522   4.595884   4.815416   1.245024   2.864024
    27  C    5.431929   4.524886   6.076055   2.417051   2.376152
    28  C    6.785564   5.716292   7.405859   3.063269   1.369642
    29  H    6.658286   8.845494   6.064092  10.621675  12.942149
    30  H    6.697163   8.929025   5.089825   9.683543  12.092565
    31  H    6.749114   7.947266   3.854504   8.764492  11.351100
    32  H    6.711152   7.854378   5.074461   9.793754  12.254746
    33  H    4.983148   6.516244   5.502846   9.545372  11.683217
    34  H    4.983285   6.551157   2.083152   6.714176   9.205122
    35  H    4.216729   6.714131   3.455161   7.269644   9.477521
    36  H    2.603718   3.946792   4.664262   7.515953   9.352095
    37  H    4.078722   4.570407   3.794874   7.440553   9.617738
    38  H    4.618044   7.368391   6.231657   9.908009  11.843816
    39  H    2.977188   5.953518   5.280492   8.415041  10.229434
    40  H    2.751873   3.372458   7.011160   6.278637   6.615683
    41  H    3.167508   2.078188   7.035983   7.197155   7.927346
    42  H    5.022490   2.635600   7.562130   5.622729   5.509014
    43  H    4.880506   3.393282   8.564484   7.136360   6.934791
    44  H    5.641846   5.384091   2.619705   2.345904   5.046274
    45  H    5.085423   4.184521   7.384677   4.504188   3.860330
    46  H    8.619818   7.464540   8.538123   3.684059   0.997329
                    6          7          8          9         10
     6  O    0.000000
     7  N    8.749427   0.000000
     8  N   10.828829   2.953859   0.000000
     9  N    4.094881   4.948532   6.803034   0.000000
    10  C   11.096294   2.365127   2.535626   7.298481   0.000000
    11  C   12.464396   3.816116   3.331472   8.723802   1.511785
    12  C   12.131271   3.540745   3.849382   8.439875   1.520077
    13  C   10.836976   2.353317   1.477131   6.836488   1.534199
    14  C    9.833046   1.500525   3.111748   6.223845   1.527490
    15  C    9.507200   1.498635   2.442372   5.531539   2.371840
    16  C    7.431897   1.388469   4.169193   3.797812   3.690540
    17  C    4.847564   5.324021   6.619467   1.461110   7.560967
    18  C    5.860409   5.231398   6.403686   2.523217   7.333812
    19  C    4.819130   6.496158   7.755763   2.547956   8.695408
    20  C    6.386849   2.445311   4.595152   2.506063   4.797079
    21  C    5.017876   3.750186   5.991142   1.413554   6.112280
    22  C    7.255401   2.456953   5.394280   4.215093   4.356426
    23  C    4.854072   4.226117   6.854346   2.416985   6.480823
    24  C    6.115887   3.708687   6.583760   3.701141   5.715967
    25  C    2.734907   6.130981   8.127196   1.366629   8.491731
    26  C    3.736758   5.713527   8.320085   2.899520   7.940999
    27  C    2.397812   6.491663   8.813051   2.427809   8.816246
    28  C    1.236588   7.957500  10.247327   3.693193  10.274069
    29  H   13.205205   4.522505   3.274241   9.354526   2.235625
    30  H   12.605456   4.244516   4.048003   9.030990   2.236525
    31  H   12.048061   3.822139   4.744041   8.565307   2.241558
    32  H   12.676334   4.129785   4.102407   8.907352   2.240354
    33  H   11.668402   3.317904   2.114764   7.642403   2.184578
    34  H    9.871184   2.156910   4.173505   6.519092   2.186102
    35  H    9.841702   2.128791   3.168430   6.323090   2.180207
    36  H    9.107338   2.148235   2.545168   5.044769   3.332346
    37  H    9.751015   2.150375   3.386853   5.906393   2.758780
    38  H   11.673961   3.716809   1.024861   7.697914   2.739706
    39  H    9.999646   2.566157   1.025133   6.038797   2.830268
    40  H    5.343837   5.502884   6.397738   2.167581   7.628222
    41  H    6.845461   5.308212   5.974517   3.421818   7.202409
    42  H    4.208365   6.894966   8.468242   2.689024   9.151962
    43  H    5.281317   7.315710   8.267074   3.452383   9.442417
    44  H    6.309427   4.594706   7.512697   4.539133   6.396278
    45  H    2.327002   7.020617   8.793431   2.085315   9.371664
    46  H    2.329662   9.521962  11.965781   5.583329  11.768810
                   11         12         13         14         15
    11  C    0.000000
    12  C    1.533317   0.000000
    13  C    2.670143   2.639684   0.000000
    14  C    2.662514   2.641172   2.448463   0.000000
    15  C    3.834633   3.379350   1.539640   2.467790   0.000000
    16  C    5.099655   4.722014   3.696781   2.539006   2.532382
    17  C    8.997479   8.764279   6.813717   6.710787   5.566641
    18  C    8.811941   8.405207   6.420799   6.717577   5.096668
    19  C   10.169631   9.793975   7.849769   7.947716   6.527053
    20  C    6.223747   5.959391   4.458385   3.745250   3.213685
    21  C    7.527514   7.187029   5.841907   4.957786   4.528009
    22  C    5.628965   5.073507   4.730422   3.069352   3.628376
    23  C    7.828252   7.372142   6.507520   5.186264   5.205078
    24  C    6.973779   6.424706   6.023595   4.385440   4.825300
    25  C    9.896413   9.582897   8.133889   7.320191   6.811681
    26  C    9.255855   8.785307   8.001590   6.607014   6.687525
    27  C   10.178030   9.790150   8.674475   7.531677   7.339969
    28  C   11.619354  11.236395  10.142703   8.964915   8.807739
    29  H    1.085315   2.252153   2.862727   3.552656   4.275307
    30  H    1.084626   2.251322   3.563536   2.857836   4.589536
    31  H    2.251642   1.083993   3.521524   2.818614   3.946957
    32  H    2.250632   1.084605   2.809008   3.522391   3.576811
    33  H    2.945002   2.724056   1.094640   3.395339   2.194548
    34  H    3.053282   2.721168   3.337828   1.088810   3.188035
    35  H    2.929987   3.401142   2.999963   1.097120   3.212677
    36  H    4.738206   4.411930   2.184008   3.357075   1.089010
    37  H    4.151050   3.286950   2.187551   2.974667   1.097403
    38  H    3.044526   3.922070   2.085677   3.499735   3.345528
    39  H    3.767744   4.307082   2.067146   2.870789   2.514958
    40  H    8.994835   8.940029   6.824724   6.815343   5.752126
    41  H    8.636745   8.299054   6.109123   6.782379   4.925167
    42  H   10.647506  10.159930   8.417739   8.328411   7.007055
    43  H   10.891120  10.586500   8.493120   8.765332   7.256107
    44  H    7.551511   6.935114   6.867714   5.061312   5.723483
    45  H   10.780859  10.509038   8.905857   8.249729   7.603999
    46  H   13.057019  12.629513  11.785294  10.398215  10.458135
                   16         17         18         19         20
    16  C    0.000000
    17  C    4.441908   0.000000
    18  C    4.524421   1.511645   0.000000
    19  C    5.617320   1.538877   1.502789   0.000000
    20  C    1.405794   3.062515   3.347955   4.329436   0.000000
    21  C    2.482050   2.528168   3.132844   3.676489   1.406223
    22  C    1.416144   5.186781   5.338801   6.250588   2.387032
    23  C    2.838025   3.765298   4.318430   4.694581   2.402327
    24  C    2.435934   4.933673   5.280398   5.893171   2.751567
    25  C    4.875773   2.410684   3.497718   2.958485   3.713908
    26  C    4.326792   4.327529   5.041610   4.990454   3.806267
    27  C    5.134279   3.698791   4.628292   4.175336   4.248050
    28  C    6.597893   4.754206   5.717247   4.946586   5.705258
    29  H    5.874329   9.483601   9.236105  10.627961   6.882409
    30  H    5.396799   9.430693   9.393139  10.683073   6.559139
    31  H    4.786921   9.052633   8.747318  10.078112   6.131953
    32  H    5.321161   9.108835   8.579300  10.020710   6.478023
    33  H    4.608515   7.511428   6.936056   8.412167   5.342834
    34  H    2.779507   7.190162   7.211556   8.382744   4.136055
    35  H    2.965439   6.822160   7.037743   8.178828   3.952294
    36  H    2.825110   4.829994   4.268499   5.728199   3.003014
    37  H    2.921274   5.998404   5.340934   6.780614   3.714722
    38  H    4.976750   7.539886   7.391877   8.716782   5.477726
    39  H    3.595255   5.928554   5.914879   7.178135   3.883682
    40  H    4.780388   1.080285   2.235549   2.266081   3.392195
    41  H    4.868710   2.231192   1.082349   2.249367   3.780719
    42  H    5.879274   2.241601   2.200912   1.082881   4.676508
    43  H    6.531169   2.255623   2.236147   1.082195   5.212080
    44  H    3.422696   5.850028   6.208320   6.709375   3.832721
    45  H    5.827764   2.542722   3.683310   2.725542   4.576432
    46  H    8.140919   6.671643   7.578404   6.768320   7.415191
                   21         22         23         24         25
    21  C    0.000000
    22  C    2.804696   0.000000
    23  C    1.412476   2.403392   0.000000
    24  C    2.432264   1.367698   1.395466   0.000000
    25  C    2.396766   4.987485   2.738178   4.133452   0.000000
    26  C    2.563703   3.730954   1.494070   2.453370   2.446219
    27  C    2.852487   4.862209   2.460379   3.727589   1.362288
    28  C    4.311321   6.254999   3.872988   5.039946   2.379067
    29  H    8.238880   6.549540   8.667344   7.900631  10.582863
    30  H    7.795118   5.762625   7.973665   7.047474  10.130549
    31  H    7.236186   4.826636   7.210835   6.115641   9.611195
    32  H    7.713936   5.745557   7.973405   7.084427  10.088658
    33  H    6.695894   5.584101   7.371649   6.877458   8.954357
    34  H    5.158564   2.770531   5.090114   4.050576   7.491445
    35  H    5.130823   3.539789   5.404488   4.712889   7.385376
    36  H    4.273970   4.094981   5.200338   5.111436   6.380625
    37  H    4.865449   3.702443   5.370475   4.872992   7.119411
    38  H    6.868899   6.117918   7.678952   7.336622   9.000882
    39  H    5.250643   4.865352   6.139877   5.961113   7.333595
    40  H    3.120050   5.680047   4.426508   5.543068   3.058781
    41  H    3.908452   5.876414   5.182385   6.026767   4.483514
    42  H    3.781234   6.281817   4.512362   5.736529   2.698430
    43  H    4.648880   7.254863   5.717708   6.933959   3.763475
    44  H    3.395810   2.142734   2.123981   1.081719   4.721072
    45  H    3.358263   6.039855   3.820141   5.215551   1.082446
    46  H    6.040242   7.560016   5.319569   6.233491   4.295112
                   26         27         28         29         30
    26  C    0.000000
    27  C    1.456797   0.000000
    28  C    2.603809   1.471931   0.000000
    29  H   10.121533  10.965521  12.416877   0.000000
    30  H    9.339092  10.315816  11.720739   1.829301   0.000000
    31  H    8.546449   9.667052  11.078083   3.130779   2.539242
    32  H    9.397546  10.359720  11.814436   2.538056   3.129220
    33  H    8.859824   9.524524  10.992137   2.856888   3.986408
    34  H    6.423089   7.510279   8.906946   4.084854   3.042188
    35  H    6.767995   7.617164   9.010612   3.728149   2.850668
    36  H    6.641627   7.086949   8.528595   5.042747   5.504682
    37  H    6.805751   7.549329   9.002110   4.635961   4.950354
    38  H    9.135783   9.658570  11.083016   2.749559   3.679294
    39  H    7.571577   8.017675   9.430325   3.916540   4.286704
    40  H    5.035277   4.368441   5.354239   9.406414   9.404873
    41  H    6.033835   5.657224   6.752980   8.939818   9.296572
    42  H    4.551914   3.691166   4.315989  11.181601  11.131429
    43  H    5.965696   5.022994   5.622290  11.275199  11.431199
    44  H    2.583271   4.020360   5.137631   8.536630   7.533025
    45  H    3.418894   2.101208   2.503211  11.414885  11.042015
    46  H    3.855029   3.221663   1.920687  13.921416  13.069542
                   31         32         33         34         35
    31  H    0.000000
    32  H    1.832481   0.000000
    33  H    3.714459   2.460604   0.000000
    34  H    2.459310   3.673347   4.151359   0.000000
    35  H    3.609265   4.336878   4.017479   1.785062   0.000000
    36  H    5.029805   4.519468   2.698012   4.142885   3.909812
    37  H    3.717780   3.287839   2.443566   3.389960   3.921088
    38  H    4.861269   4.200053   2.516412   4.526087   3.375660
    39  H    5.053405   4.742939   2.956127   3.955008   2.708089
    40  H    9.310921   9.313353   7.552550   7.410479   6.780833
    41  H    8.765936   8.387034   6.523946   7.402695   7.096280
    42  H   10.342310  10.397602   8.983321   8.636585   8.619256
    43  H   10.940149  10.777867   9.013165   9.275623   8.945292
    44  H    6.471287   7.618836   7.693152   4.526301   5.392318
    45  H   10.591904  10.981768   9.698424   8.487546   8.277504
    46  H   12.347439  13.248386  12.645397  10.195143  10.437244
                   36         37         38         39         40
    36  H    0.000000
    37  H    1.798120   0.000000
    38  H    3.559657   4.216369   0.000000
    39  H    2.514674   3.590138   1.679969   0.000000
    40  H    4.957570   6.348574   7.249682   5.652549   0.000000
    41  H    3.958189   5.233474   6.946103   5.584131   2.526585
    42  H    6.312183   7.136498   9.446877   7.891616   3.135386
    43  H    6.369347   7.563784   9.200201   7.706111   2.562005
    44  H    6.098592   5.665764   8.219758   6.917426   6.499443
    45  H    7.062571   7.943252   9.667089   7.996309   3.042734
    46  H   10.275901  10.582135  12.772939  11.144763   7.263901
                   41         42         43         44         45
    41  H    0.000000
    42  H    3.109388   0.000000
    43  H    2.567712   1.840623   0.000000
    44  H    7.008755   6.422081   7.763054   0.000000
    45  H    4.607139   2.466842   3.276421   5.788823   0.000000
    46  H    8.630319   6.032314   7.396476   6.020496   4.357144
                   46
    46  H    0.000000
 Stoichiometry    C19H18ClF2N3O3
 Framework group  C1[X(C19H18ClF2N3O3)]
 Deg. of freedom   132
 Full point group                 C1      NOp   1
 Largest Abelian subgroup         C1      NOp   1
 Largest concise Abelian subgroup C1      NOp   1
                         Standard orientation:                         
 ---------------------------------------------------------------------
 Center     Atomic      Atomic             Coordinates (Angstroms)
 Number     Number       Type             X           Y           Z
 ---------------------------------------------------------------------
      1         17           0       -0.812095    1.938882   -1.055606
      2          9           0        1.027169    1.992283    2.006348
      3          9           0       -1.711643   -2.814774    0.691448
      4          8           0        3.191602   -2.906032    0.310834
      5          8           0        5.743489   -2.153614   -0.273062
      6          8           0        6.137407    0.055528   -0.692150
      7          7           0       -2.585395   -0.243755   -0.079263
      8          7           0       -4.553036    1.750723   -1.015067
      9          7           0        2.181624    1.056544   -0.348929
     10          6           0       -4.924930   -0.589210   -0.111845
     11          6           0       -6.275736   -1.069193   -0.591880
     12          6           0       -5.811194   -1.381309    0.835651
     13          6           0       -4.632185    0.887990    0.181320
     14          6           0       -3.616135   -1.190312   -0.620723
     15          6           0       -3.223717    0.792024    0.795731
     16          6           0       -1.236241   -0.561666    0.001739
     17          6           0        1.976300    2.497675   -0.223124
     18          6           0        1.373745    2.973567    1.078999
     19          6           0        2.835557    3.218214    0.830747
     20          6           0       -0.228980    0.373783   -0.292570
     21          6           0        1.146938    0.109977   -0.171251
     22          6           0       -0.782947   -1.856158    0.354273
     23          6           0        1.521328   -1.227053    0.088118
     24          6           0        0.543557   -2.189153    0.344348
     25          6           0        3.474079    0.620409   -0.432714
     26          6           0        2.934178   -1.712508    0.067279
     27          6           0        3.889446   -0.667473   -0.275683
     28          6           0        5.340592   -0.854745   -0.435948
     29          1           0       -7.062108   -0.331412   -0.715195
     30          1           0       -6.302295   -1.888511   -1.302109
     31          1           0       -5.526271   -2.402770    1.060321
     32          1           0       -6.288710   -0.843258    1.647345
     33          1           0       -5.355674    1.303846    0.889743
     34          1           0       -3.461474   -2.206323   -0.261128
     35          1           0       -3.572594   -1.179308   -1.716923
     36          1           0       -2.698663    1.743710    0.728243
     37          1           0       -3.271613    0.449405    1.837178
     38          1           0       -5.389572    1.663252   -1.600640
     39          1           0       -3.716165    1.520446   -1.560518
     40          1           0        1.715629    3.024206   -1.129673
     41          1           0        0.671599    3.796225    1.037726
     42          1           0        3.518921    2.600479    1.399999
     43          1           0        3.166634    4.224104    0.607768
     44          1           0        0.877524   -3.193666    0.566912
     45          1           0        4.223733    1.377661   -0.623183
     46          1           0        6.732714   -2.177458   -0.397685
 ---------------------------------------------------------------------
 Rotational constants (GHZ):      0.3351074      0.0979405      0.0815029
 1\1\GINC-NODE041\FOpt\RB3LYP\3-21G\C19H18Cl1F2N3O3\SUPERCOMPUTO1\13-Ju
 l-2021\0\\# opt b3lyp/3-21g geom=connectivity\\Title Card Required\\0,
 1\Cl,-0.812095,1.938882,-1.055606\F,1.027169,1.992283,2.006348\F,-1.71
 1643,-2.814774,0.691448\O,3.191602,-2.906032,0.310834\O,5.743489,-2.15
 3614,-0.273062\O,6.137407,0.055528,-0.69215\N,-2.585395,-0.243755,-0.0
 79263\N,-4.553036,1.750723,-1.015067\N,2.181624,1.056544,-0.348929\C,-
 4.92493,-0.58921,-0.111845\C,-6.275736,-1.069193,-0.59188\C,-5.811194,
 -1.381309,0.835651\C,-4.632185,0.88799,0.18132\C,-3.616135,-1.190312,-
 0.620723\C,-3.223717,0.792024,0.795731\C,-1.236241,-0.561666,0.001739\
 C,1.9763,2.497675,-0.223124\C,1.373745,2.973567,1.078999\C,2.835557,3.
 218214,0.830747\C,-0.22898,0.373783,-0.29257\C,1.146938,0.109977,-0.17
 1251\C,-0.782947,-1.856158,0.354273\C,1.521328,-1.227053,0.088118\C,0.
 543557,-2.189153,0.344348\C,3.474079,0.620409,-0.432714\C,2.934178,-1.
 712508,0.067279\C,3.889446,-0.667473,-0.275683\C,5.340592,-0.854745,-0
 .435948\H,-7.062108,-0.331412,-0.715195\H,-6.302295,-1.888511,-1.30210
 9\H,-5.526271,-2.40277,1.060321\H,-6.28871,-0.843258,1.647345\H,-5.355
 674,1.303846,0.889743\H,-3.461474,-2.206323,-0.261128\H,-3.572594,-1.1
 79308,-1.716923\H,-2.698663,1.74371,0.728243\H,-3.271613,0.449405,1.83
 7178\H,-5.389572,1.663252,-1.60064\H,-3.716165,1.520446,-1.560518\H,1.
 715629,3.024206,-1.129673\H,0.671599,3.796225,1.037726\H,3.518921,2.60
 0479,1.399999\H,3.166634,4.224104,0.607768\H,0.877524,-3.193666,0.5669
 12\H,4.223733,1.377661,-0.623183\H,6.732714,-2.177458,-0.397685\\Versi
 on=ES64L-G09RevD.01\State=1-A\HF=-1775.0950423\RMSD=9.015e-09\RMSF=7.2
 93e-06\Dipole=-1.0914907,1.4875016,-0.2403368\Quadrupole=3.7860488,-1.
 3901725,-2.3958763,10.9913786,1.7472224,2.8615417\PG=C01 [X(C19H18Cl1F
 2N3O3)]\\@


 ABALONE: AN EXPRESSION OF DISBELIEF.
 Job cpu time:       0 days  0 hours  5 minutes 17.7 seconds.
 File lengths (MBytes):  RWF=     50 Int=      0 D2E=      0 Chk=      8 Scr=      1
 Normal termination of Gaussian 09 at Tue Jul 13 13:59:20 2021.
