 Entering Gaussian System, Link 0=g09
 Input=esparfloxacina.gjf
 Output=esparfloxacina.log
 Initial command:
 /usr/local/cluster_programs/g09/l1.exe "/tmp/scratch/63942.prometeo/Gau-10616.inp" -scrdir="/tmp/scratch/63942.prometeo/"
 Entering Link 1 = /usr/local/cluster_programs/g09/l1.exe PID=     10617.
  
 Copyright (c) 1988,1990,1992,1993,1995,1998,2003,2009,2013,
            Gaussian, Inc.  All Rights Reserved.
  
 This is part of the Gaussian(R) 09 program.  It is based on
 the Gaussian(R) 03 system (copyright 2003, Gaussian, Inc.),
 the Gaussian(R) 98 system (copyright 1998, Gaussian, Inc.),
 the Gaussian(R) 94 system (copyright 1995, Gaussian, Inc.),
 the Gaussian 92(TM) system (copyright 1992, Gaussian, Inc.),
 the Gaussian 90(TM) system (copyright 1990, Gaussian, Inc.),
 the Gaussian 88(TM) system (copyright 1988, Gaussian, Inc.),
 the Gaussian 86(TM) system (copyright 1986, Carnegie Mellon
 University), and the Gaussian 82(TM) system (copyright 1983,
 Carnegie Mellon University). Gaussian is a federally registered
 trademark of Gaussian, Inc.
  
 This software contains proprietary and confidential information,
 including trade secrets, belonging to Gaussian, Inc.
  
 This software is provided under written license and may be
 used, copied, transmitted, or stored only in accord with that
 written license.
  
 The following legend is applicable only to US Government
 contracts under FAR:
  
                    RESTRICTED RIGHTS LEGEND
  
 Use, reproduction and disclosure by the US Government is
 subject to restrictions as set forth in subparagraphs (a)
 and (c) of the Commercial Computer Software - Restricted
 Rights clause in FAR 52.227-19.
  
 Gaussian, Inc.
 340 Quinnipiac St., Bldg. 40, Wallingford CT 06492
  
  
 ---------------------------------------------------------------
 Warning -- This program may not be used in any manner that
 competes with the business of Gaussian, Inc. or will provide
 assistance to any competitor of Gaussian, Inc.  The licensee
 of this program is prohibited from giving any competitor of
 Gaussian, Inc. access to this program.  By using this program,
 the user acknowledges that Gaussian, Inc. is engaged in the
 business of creating and licensing software in the field of
 computational chemistry and represents and warrants to the
 licensee that it is not a competitor of Gaussian, Inc. and that
 it will not use this program in any manner prohibited above.
 ---------------------------------------------------------------
  

 Cite this work as:
 Gaussian 09, Revision D.01,
 M. J. Frisch, G. W. Trucks, H. B. Schlegel, G. E. Scuseria, 
 M. A. Robb, J. R. Cheeseman, G. Scalmani, V. Barone, B. Mennucci, 
 G. A. Petersson, H. Nakatsuji, M. Caricato, X. Li, H. P. Hratchian, 
 A. F. Izmaylov, J. Bloino, G. Zheng, J. L. Sonnenberg, M. Hada, 
 M. Ehara, K. Toyota, R. Fukuda, J. Hasegawa, M. Ishida, T. Nakajima, 
 Y. Honda, O. Kitao, H. Nakai, T. Vreven, J. A. Montgomery, Jr., 
 J. E. Peralta, F. Ogliaro, M. Bearpark, J. J. Heyd, E. Brothers, 
 K. N. Kudin, V. N. Staroverov, T. Keith, R. Kobayashi, J. Normand, 
 K. Raghavachari, A. Rendell, J. C. Burant, S. S. Iyengar, J. Tomasi, 
 M. Cossi, N. Rega, J. M. Millam, M. Klene, J. E. Knox, J. B. Cross, 
 V. Bakken, C. Adamo, J. Jaramillo, R. Gomperts, R. E. Stratmann, 
 O. Yazyev, A. J. Austin, R. Cammi, C. Pomelli, J. W. Ochterski, 
 R. L. Martin, K. Morokuma, V. G. Zakrzewski, G. A. Voth, 
 P. Salvador, J. J. Dannenberg, S. Dapprich, A. D. Daniels, 
 O. Farkas, J. B. Foresman, J. V. Ortiz, J. Cioslowski, 
 and D. J. Fox, Gaussian, Inc., Wallingford CT, 2013.
 
 ******************************************
 Gaussian 09:  ES64L-G09RevD.01 24-Apr-2013
                 6-Jul-2020 
 ******************************************
 %nprocshared=20
 Will use up to   20 processors via shared memory.
 -----------------------------------
 # opt b3lyp/3-21g geom=connectivity
 -----------------------------------
 1/14=-1,18=20,19=15,26=3,38=1,57=2/1,3;
 2/9=110,12=2,17=6,18=5,40=1/2;
 3/5=5,11=2,16=1,25=1,30=1,71=1,74=-5/1,2,3;
 4//1;
 5/5=2,38=5/2;
 6/7=2,8=2,9=2,10=2,28=1/1;
 7//1,2,3,16;
 1/14=-1,18=20,19=15,26=3/3(2);
 2/9=110/2;
 99//99;
 2/9=110/2;
 3/5=5,11=2,16=1,25=1,30=1,71=1,74=-5/1,2,3;
 4/5=5,16=3,69=1/1;
 5/5=2,38=5/2;
 7//1,2,3,16;
 1/14=-1,18=20,19=15,26=3/3(-5);
 2/9=110/2;
 6/7=2,8=2,9=2,10=2,19=2,28=1/1;
 99/9=1/99;
 -------------------
 Title Card Required
 -------------------
 Symbolic Z-matrix:
 Charge =  0 Multiplicity = 1
 F(PDBName=F1,ResName=MOL,ResNum=1) 0     8.319    -7.056    -5.25     L 
 F(PDBName=F2,ResName=MOL,ResNum=1) 0     9.175    -2.457    -6.105    L 
 O(PDBName=O3,ResName=MOL,ResNum=1) 0     4.13     -2.8      -6.322    L 
 O(PDBName=O4,ResName=MOL,ResNum=1) 0     1.666    -4.037    -6.743    L 
 O(PDBName=O5,ResName=MOL,ResNum=1) 0     1.479    -6.044    -5.711    L 
 N(PDBName=N6,ResName=MOL,ResNum=1) 0     5.517    -6.638    -5.678    L 
 N(PDBName=N7,ResName=MOL,ResNum=1) 0     10.17    -5.069    -5.642    L 
 N(PDBName=N8,ResName=MOL,ResNum=1) 0     12.9     -4.852    -6.55     L 
 N(PDBName=N9,ResName=MOL,ResNum=1) 0     6.561    -1.917    -6.247    L 
 C(PDBName=C10,ResName=MOL,ResNum=1) 0     5.91     -8.039    -5.604    L 
 C(PDBName=C11,ResName=MOL,ResNum=1) 0     6.379    -8.732    -6.851    L 
 C(PDBName=C12,ResName=MOL,ResNum=1) 0     5.056    -9.1      -6.237    L 
 C(PDBName=C13,ResName=MOL,ResNum=1) 0     6.468    -5.598    -5.779    L 
 C(PDBName=C14,ResName=MOL,ResNum=1) 0     11.932   -5.716    -7.243    L 
 C(PDBName=C15,ResName=MOL,ResNum=1) 0     12.25    -3.734    -5.844    L 
 C(PDBName=C16,ResName=MOL,ResNum=1) 0     10.801   -6.201    -6.31     L 
 C(PDBName=C17,ResName=MOL,ResNum=1) 0     11.118   -4.222    -4.927    L 
 C(PDBName=C18,ResName=MOL,ResNum=1) 0     8.816    -4.798    -5.743    L 
 C(PDBName=C19,ResName=MOL,ResNum=1) 0     4.196    -6.35     -5.73     L 
 C(PDBName=C20,ResName=MOL,ResNum=1) 0     5.989    -4.269    -5.983    L 
 C(PDBName=C21,ResName=MOL,ResNum=1) 0     7.842    -5.821    -5.639    L 
 C(PDBName=C22,ResName=MOL,ResNum=1) 0     6.944    -3.204    -6.043    L 
 C(PDBName=C23,ResName=MOL,ResNum=1) 0     3.664    -5.112    -5.979    L 
 C(PDBName=C24,ResName=MOL,ResNum=1) 0     8.303    -3.513    -5.934    L 
 C(PDBName=C25,ResName=MOL,ResNum=1) 0     4.557    -3.97     -6.128    L 
 C(PDBName=C26,ResName=MOL,ResNum=1) 0     12.64    -6.883    -7.913    L 
 C(PDBName=C27,ResName=MOL,ResNum=1) 0     13.276   -2.917    -5.078    L 
 C(PDBName=C28,ResName=MOL,ResNum=1) 0     2.191    -5.111    -6.104    L 
 H(PDBName=H29,ResName=MOL,ResNum=1) 0     6.406    -8.297    -4.672    L 
 H(PDBName=H30,ResName=MOL,ResNum=1) 0     7.221    -9.415    -6.761    L 
 H(PDBName=H31,ResName=MOL,ResNum=1) 0     6.34     -8.152    -7.773    L 
 H(PDBName=H32,ResName=MOL,ResNum=1) 0     4.157    -8.81     -6.775    L 
 H(PDBName=H33,ResName=MOL,ResNum=1) 0     4.968    -10.043   -5.7      L 
 H(PDBName=H34,ResName=MOL,ResNum=1) 0     11.465   -5.085    -8.018    L 
 H(PDBName=H35,ResName=MOL,ResNum=1) 0     11.789   -3.098    -6.62     L 
 H(PDBName=H36,ResName=MOL,ResNum=1) 0     10.048   -6.752    -6.885    L 
 H(PDBName=H37,ResName=MOL,ResNum=1) 0     11.231   -6.894    -5.559    L 
 H(PDBName=H38,ResName=MOL,ResNum=1) 0     11.567   -4.824    -4.109    L 
 H(PDBName=H39,ResName=MOL,ResNum=1) 0     10.591   -3.379    -4.47     L 
 H(PDBName=H40,ResName=MOL,ResNum=1) 0     3.519    -7.189    -5.586    L 
 H(PDBName=H41,ResName=MOL,ResNum=1) 0     13.461   -5.416    -5.889    L 
 H(PDBName=H42,ResName=MOL,ResNum=1) 0     13.398   -6.512    -8.616    L 
 H(PDBName=H43,ResName=MOL,ResNum=1) 0     13.147   -7.523    -7.173    L 
 H(PDBName=H44,ResName=MOL,ResNum=1) 0     11.929   -7.512    -8.469    L 
 H(PDBName=H45,ResName=MOL,ResNum=1) 0     12.795   -2.079    -4.553    L 
 H(PDBName=H46,ResName=MOL,ResNum=1) 0     13.792   -3.537    -4.326    L 
 H(PDBName=H47,ResName=MOL,ResNum=1) 0     14.032   -2.503    -5.758    L 
 H(PDBName=H48,ResName=MOL,ResNum=1) 0     5.546    -1.781    -6.391    L 
 H(PDBName=H49,ResName=MOL,ResNum=1) 0     7.268    -1.195    -6.367    L 
 H(PDBName=H50,ResName=MOL,ResNum=1) 0     0.7      -4.227    -6.83     L 
 
 Center=      8.27238000     -5.36766000     -6.13234000
 Residue   1 PDB Number     1_0 MOL charge    0.00000000 layers R        AvRTP=      0.00000000    180.00000000     90.00000000

 GradGradGradGradGradGradGradGradGradGradGradGradGradGradGradGradGradGrad
 Berny optimization.
 Initialization pass.
                           ----------------------------
                           !    Initial Parameters    !
                           ! (Angstroms and Degrees)  !
 --------------------------                            --------------------------
 ! Name  Definition              Value          Derivative Info.                !
 --------------------------------------------------------------------------------
 ! R1    R(1,21)                 1.3799         estimate D2E/DX2                !
 ! R2    R(2,24)                 1.3801         estimate D2E/DX2                !
 ! R3    R(3,25)                 1.2605         estimate D2E/DX2                !
 ! R4    R(4,28)                 1.3555         estimate D2E/DX2                !
 ! R5    R(4,50)                 0.9883         estimate D2E/DX2                !
 ! R6    R(5,28)                 1.2377         estimate D2E/DX2                !
 ! R7    R(6,10)                 1.457          estimate D2E/DX2                !
 ! R8    R(6,13)                 1.4129         estimate D2E/DX2                !
 ! R9    R(6,19)                 1.353          estimate D2E/DX2                !
 ! R10   R(7,16)                 1.458          estimate D2E/DX2                !
 ! R11   R(7,17)                 1.4585         estimate D2E/DX2                !
 ! R12   R(7,18)                 1.3845         estimate D2E/DX2                !
 ! R13   R(8,14)                 1.471          estimate D2E/DX2                !
 ! R14   R(8,15)                 1.4734         estimate D2E/DX2                !
 ! R15   R(8,41)                 1.0343         estimate D2E/DX2                !
 ! R16   R(9,22)                 1.3582         estimate D2E/DX2                !
 ! R17   R(9,48)                 1.0341         estimate D2E/DX2                !
 ! R18   R(9,49)                 1.0176         estimate D2E/DX2                !
 ! R19   R(10,11)                1.5017         estimate D2E/DX2                !
 ! R20   R(10,12)                1.5019         estimate D2E/DX2                !
 ! R21   R(10,29)                1.0868         estimate D2E/DX2                !
 ! R22   R(11,12)                1.5042         estimate D2E/DX2                !
 ! R23   R(11,30)                1.0879         estimate D2E/DX2                !
 ! R24   R(11,31)                1.09           estimate D2E/DX2                !
 ! R25   R(12,32)                1.0871         estimate D2E/DX2                !
 ! R26   R(12,33)                1.0887         estimate D2E/DX2                !
 ! R27   R(13,20)                1.4273         estimate D2E/DX2                !
 ! R28   R(13,21)                1.399          estimate D2E/DX2                !
 ! R29   R(14,16)                1.5443         estimate D2E/DX2                !
 ! R30   R(14,26)                1.5205         estimate D2E/DX2                !
 ! R31   R(14,34)                1.1031         estimate D2E/DX2                !
 ! R32   R(15,17)                1.5364         estimate D2E/DX2                !
 ! R33   R(15,27)                1.5189         estimate D2E/DX2                !
 ! R34   R(15,35)                1.1042         estimate D2E/DX2                !
 ! R35   R(16,36)                1.096          estimate D2E/DX2                !
 ! R36   R(16,37)                1.1087         estimate D2E/DX2                !
 ! R37   R(17,38)                1.1105         estimate D2E/DX2                !
 ! R38   R(17,39)                1.0942         estimate D2E/DX2                !
 ! R39   R(18,21)                1.4163         estimate D2E/DX2                !
 ! R40   R(18,24)                1.3967         estimate D2E/DX2                !
 ! R41   R(19,23)                1.3703         estimate D2E/DX2                !
 ! R42   R(19,40)                1.0877         estimate D2E/DX2                !
 ! R43   R(20,22)                1.4317         estimate D2E/DX2                !
 ! R44   R(20,25)                1.4701         estimate D2E/DX2                !
 ! R45   R(22,24)                1.3979         estimate D2E/DX2                !
 ! R46   R(23,25)                1.4573         estimate D2E/DX2                !
 ! R47   R(23,28)                1.4783         estimate D2E/DX2                !
 ! R48   R(26,42)                1.0984         estimate D2E/DX2                !
 ! R49   R(26,43)                1.1019         estimate D2E/DX2                !
 ! R50   R(26,44)                1.1001         estimate D2E/DX2                !
 ! R51   R(27,45)                1.0996         estimate D2E/DX2                !
 ! R52   R(27,46)                1.1028         estimate D2E/DX2                !
 ! R53   R(27,47)                1.0979         estimate D2E/DX2                !
 ! A1    A(28,4,50)            105.5293         estimate D2E/DX2                !
 ! A2    A(10,6,13)            121.9979         estimate D2E/DX2                !
 ! A3    A(10,6,19)            118.0335         estimate D2E/DX2                !
 ! A4    A(13,6,19)            119.8503         estimate D2E/DX2                !
 ! A5    A(16,7,17)            113.2144         estimate D2E/DX2                !
 ! A6    A(16,7,18)            122.8047         estimate D2E/DX2                !
 ! A7    A(17,7,18)            123.8984         estimate D2E/DX2                !
 ! A8    A(14,8,15)            112.4032         estimate D2E/DX2                !
 ! A9    A(14,8,41)            109.7387         estimate D2E/DX2                !
 ! A10   A(15,8,41)            110.2937         estimate D2E/DX2                !
 ! A11   A(22,9,48)            114.9801         estimate D2E/DX2                !
 ! A12   A(22,9,49)            119.6111         estimate D2E/DX2                !
 ! A13   A(48,9,49)            124.902          estimate D2E/DX2                !
 ! A14   A(6,10,11)            119.0654         estimate D2E/DX2                !
 ! A15   A(6,10,12)            120.2994         estimate D2E/DX2                !
 ! A16   A(6,10,29)            113.2614         estimate D2E/DX2                !
 ! A17   A(11,10,29)           117.3872         estimate D2E/DX2                !
 ! A18   A(12,10,29)           116.9505         estimate D2E/DX2                !
 ! A19   A(10,11,30)           117.5633         estimate D2E/DX2                !
 ! A20   A(10,11,31)           116.4669         estimate D2E/DX2                !
 ! A21   A(12,11,30)           119.5611         estimate D2E/DX2                !
 ! A22   A(12,11,31)           116.3588         estimate D2E/DX2                !
 ! A23   A(30,11,31)           115.5786         estimate D2E/DX2                !
 ! A24   A(10,12,32)           119.3643         estimate D2E/DX2                !
 ! A25   A(10,12,33)           116.7405         estimate D2E/DX2                !
 ! A26   A(11,12,32)           117.3917         estimate D2E/DX2                !
 ! A27   A(11,12,33)           118.9671         estimate D2E/DX2                !
 ! A28   A(32,12,33)           114.0991         estimate D2E/DX2                !
 ! A29   A(6,13,20)            118.0154         estimate D2E/DX2                !
 ! A30   A(6,13,21)            122.4513         estimate D2E/DX2                !
 ! A31   A(20,13,21)           119.4926         estimate D2E/DX2                !
 ! A32   A(8,14,16)            112.4444         estimate D2E/DX2                !
 ! A33   A(8,14,26)            110.6081         estimate D2E/DX2                !
 ! A34   A(8,14,34)            105.8781         estimate D2E/DX2                !
 ! A35   A(16,14,26)           111.4804         estimate D2E/DX2                !
 ! A36   A(16,14,34)           107.1007         estimate D2E/DX2                !
 ! A37   A(26,14,34)           109.0605         estimate D2E/DX2                !
 ! A38   A(8,15,17)            111.7172         estimate D2E/DX2                !
 ! A39   A(8,15,27)            110.5981         estimate D2E/DX2                !
 ! A40   A(8,15,35)            106.5289         estimate D2E/DX2                !
 ! A41   A(17,15,27)           111.565          estimate D2E/DX2                !
 ! A42   A(17,15,35)           107.1456         estimate D2E/DX2                !
 ! A43   A(27,15,35)           109.0646         estimate D2E/DX2                !
 ! A44   A(7,16,14)            110.4824         estimate D2E/DX2                !
 ! A45   A(7,16,36)            109.4721         estimate D2E/DX2                !
 ! A46   A(7,16,37)            110.0482         estimate D2E/DX2                !
 ! A47   A(14,16,36)           110.1265         estimate D2E/DX2                !
 ! A48   A(14,16,37)           108.754          estimate D2E/DX2                !
 ! A49   A(36,16,37)           107.9148         estimate D2E/DX2                !
 ! A50   A(7,17,15)            111.7623         estimate D2E/DX2                !
 ! A51   A(7,17,38)            108.0047         estimate D2E/DX2                !
 ! A52   A(7,17,39)            109.8224         estimate D2E/DX2                !
 ! A53   A(15,17,38)           108.297          estimate D2E/DX2                !
 ! A54   A(15,17,39)           111.066          estimate D2E/DX2                !
 ! A55   A(38,17,39)           107.743          estimate D2E/DX2                !
 ! A56   A(7,18,21)            121.7212         estimate D2E/DX2                !
 ! A57   A(7,18,24)            123.3143         estimate D2E/DX2                !
 ! A58   A(21,18,24)           114.9588         estimate D2E/DX2                !
 ! A59   A(6,19,23)            125.334          estimate D2E/DX2                !
 ! A60   A(6,19,40)            116.0034         estimate D2E/DX2                !
 ! A61   A(23,19,40)           118.6411         estimate D2E/DX2                !
 ! A62   A(13,20,22)           118.343          estimate D2E/DX2                !
 ! A63   A(13,20,25)           122.0312         estimate D2E/DX2                !
 ! A64   A(22,20,25)           119.6256         estimate D2E/DX2                !
 ! A65   A(1,21,13)            120.689          estimate D2E/DX2                !
 ! A66   A(1,21,18)            115.4311         estimate D2E/DX2                !
 ! A67   A(13,21,18)           123.5675         estimate D2E/DX2                !
 ! A68   A(9,22,20)            121.5381         estimate D2E/DX2                !
 ! A69   A(9,22,24)            119.6897         estimate D2E/DX2                !
 ! A70   A(20,22,24)           118.7347         estimate D2E/DX2                !
 ! A71   A(19,23,25)           119.2522         estimate D2E/DX2                !
 ! A72   A(19,23,28)           113.7551         estimate D2E/DX2                !
 ! A73   A(25,23,28)           126.9698         estimate D2E/DX2                !
 ! A74   A(2,24,18)            119.2629         estimate D2E/DX2                !
 ! A75   A(2,24,22)            115.813          estimate D2E/DX2                !
 ! A76   A(18,24,22)           124.825          estimate D2E/DX2                !
 ! A77   A(3,25,20)            122.2732         estimate D2E/DX2                !
 ! A78   A(3,25,23)            122.3792         estimate D2E/DX2                !
 ! A79   A(20,25,23)           115.3048         estimate D2E/DX2                !
 ! A80   A(14,26,42)           110.1279         estimate D2E/DX2                !
 ! A81   A(14,26,43)           111.3513         estimate D2E/DX2                !
 ! A82   A(14,26,44)           111.1356         estimate D2E/DX2                !
 ! A83   A(42,26,43)           107.9673         estimate D2E/DX2                !
 ! A84   A(42,26,44)           108.4007         estimate D2E/DX2                !
 ! A85   A(43,26,44)           107.739          estimate D2E/DX2                !
 ! A86   A(15,27,45)           110.8069         estimate D2E/DX2                !
 ! A87   A(15,27,46)           110.9504         estimate D2E/DX2                !
 ! A88   A(15,27,47)           110.8319         estimate D2E/DX2                !
 ! A89   A(45,27,46)           107.9113         estimate D2E/DX2                !
 ! A90   A(45,27,47)           108.0316         estimate D2E/DX2                !
 ! A91   A(46,27,47)           108.1895         estimate D2E/DX2                !
 ! A92   A(4,28,5)             121.6109         estimate D2E/DX2                !
 ! A93   A(4,28,23)            115.234          estimate D2E/DX2                !
 ! A94   A(5,28,23)            123.0824         estimate D2E/DX2                !
 ! D1    D(50,4,28,5)           -2.8059         estimate D2E/DX2                !
 ! D2    D(50,4,28,23)         174.1848         estimate D2E/DX2                !
 ! D3    D(13,6,10,11)         -75.3629         estimate D2E/DX2                !
 ! D4    D(13,6,10,12)        -145.7522         estimate D2E/DX2                !
 ! D5    D(13,6,10,29)          68.9059         estimate D2E/DX2                !
 ! D6    D(19,6,10,11)         100.674          estimate D2E/DX2                !
 ! D7    D(19,6,10,12)          30.2847         estimate D2E/DX2                !
 ! D8    D(19,6,10,29)        -115.0572         estimate D2E/DX2                !
 ! D9    D(10,6,13,20)         173.7413         estimate D2E/DX2                !
 ! D10   D(10,6,13,21)          -8.5917         estimate D2E/DX2                !
 ! D11   D(19,6,13,20)          -2.2254         estimate D2E/DX2                !
 ! D12   D(19,6,13,21)         175.4416         estimate D2E/DX2                !
 ! D13   D(10,6,19,23)        -170.8441         estimate D2E/DX2                !
 ! D14   D(10,6,19,40)           7.4392         estimate D2E/DX2                !
 ! D15   D(13,6,19,23)           5.281          estimate D2E/DX2                !
 ! D16   D(13,6,19,40)        -176.4357         estimate D2E/DX2                !
 ! D17   D(17,7,16,14)         -54.4831         estimate D2E/DX2                !
 ! D18   D(17,7,16,36)        -175.9274         estimate D2E/DX2                !
 ! D19   D(17,7,16,37)          65.6263         estimate D2E/DX2                !
 ! D20   D(18,7,16,14)         122.3302         estimate D2E/DX2                !
 ! D21   D(18,7,16,36)           0.8859         estimate D2E/DX2                !
 ! D22   D(18,7,16,37)        -117.5604         estimate D2E/DX2                !
 ! D23   D(16,7,17,15)          54.8119         estimate D2E/DX2                !
 ! D24   D(16,7,17,38)         -64.2127         estimate D2E/DX2                !
 ! D25   D(16,7,17,39)         178.5435         estimate D2E/DX2                !
 ! D26   D(18,7,17,15)        -121.961          estimate D2E/DX2                !
 ! D27   D(18,7,17,38)         119.0143         estimate D2E/DX2                !
 ! D28   D(18,7,17,39)           1.7705         estimate D2E/DX2                !
 ! D29   D(16,7,18,21)          43.9909         estimate D2E/DX2                !
 ! D30   D(16,7,18,24)        -136.9193         estimate D2E/DX2                !
 ! D31   D(17,7,18,21)        -139.538          estimate D2E/DX2                !
 ! D32   D(17,7,18,24)          39.5518         estimate D2E/DX2                !
 ! D33   D(15,8,14,16)         -52.5334         estimate D2E/DX2                !
 ! D34   D(15,8,14,26)        -177.8864         estimate D2E/DX2                !
 ! D35   D(15,8,14,34)          64.0993         estimate D2E/DX2                !
 ! D36   D(41,8,14,16)          70.5926         estimate D2E/DX2                !
 ! D37   D(41,8,14,26)         -54.7604         estimate D2E/DX2                !
 ! D38   D(41,8,14,34)        -172.7747         estimate D2E/DX2                !
 ! D39   D(14,8,15,17)          51.7907         estimate D2E/DX2                !
 ! D40   D(14,8,15,27)         176.7052         estimate D2E/DX2                !
 ! D41   D(14,8,15,35)         -64.9018         estimate D2E/DX2                !
 ! D42   D(41,8,15,17)         -71.0236         estimate D2E/DX2                !
 ! D43   D(41,8,15,27)          53.8909         estimate D2E/DX2                !
 ! D44   D(41,8,15,35)         172.2839         estimate D2E/DX2                !
 ! D45   D(48,9,22,20)          -2.3596         estimate D2E/DX2                !
 ! D46   D(48,9,22,24)         175.3857         estimate D2E/DX2                !
 ! D47   D(49,9,22,20)        -174.5919         estimate D2E/DX2                !
 ! D48   D(49,9,22,24)           3.1534         estimate D2E/DX2                !
 ! D49   D(6,10,11,30)         139.8039         estimate D2E/DX2                !
 ! D50   D(6,10,11,31)          -3.7018         estimate D2E/DX2                !
 ! D51   D(29,10,11,30)         -3.0221         estimate D2E/DX2                !
 ! D52   D(29,10,11,31)       -146.5278         estimate D2E/DX2                !
 ! D53   D(6,10,12,32)           1.7286         estimate D2E/DX2                !
 ! D54   D(6,10,12,33)        -142.182          estimate D2E/DX2                !
 ! D55   D(29,10,12,32)        145.8476         estimate D2E/DX2                !
 ! D56   D(29,10,12,33)          1.937          estimate D2E/DX2                !
 ! D57   D(30,11,12,32)       -143.5842         estimate D2E/DX2                !
 ! D58   D(30,11,12,33)          0.7538         estimate D2E/DX2                !
 ! D59   D(31,11,12,32)          3.0314         estimate D2E/DX2                !
 ! D60   D(31,11,12,33)        147.3694         estimate D2E/DX2                !
 ! D61   D(6,13,20,22)         178.0077         estimate D2E/DX2                !
 ! D62   D(6,13,20,25)          -1.8448         estimate D2E/DX2                !
 ! D63   D(21,13,20,22)          0.2694         estimate D2E/DX2                !
 ! D64   D(21,13,20,25)       -179.5831         estimate D2E/DX2                !
 ! D65   D(6,13,21,1)           -7.0767         estimate D2E/DX2                !
 ! D66   D(6,13,21,18)         179.6398         estimate D2E/DX2                !
 ! D67   D(20,13,21,1)         170.557          estimate D2E/DX2                !
 ! D68   D(20,13,21,18)         -2.7265         estimate D2E/DX2                !
 ! D69   D(8,14,16,7)           53.0325         estimate D2E/DX2                !
 ! D70   D(8,14,16,36)         174.0886         estimate D2E/DX2                !
 ! D71   D(8,14,16,37)         -67.8507         estimate D2E/DX2                !
 ! D72   D(26,14,16,7)         177.9082         estimate D2E/DX2                !
 ! D73   D(26,14,16,36)        -61.0357         estimate D2E/DX2                !
 ! D74   D(26,14,16,37)         57.025          estimate D2E/DX2                !
 ! D75   D(34,14,16,7)         -62.8668         estimate D2E/DX2                !
 ! D76   D(34,14,16,36)         58.1893         estimate D2E/DX2                !
 ! D77   D(34,14,16,37)        176.2499         estimate D2E/DX2                !
 ! D78   D(8,14,26,42)         -57.506          estimate D2E/DX2                !
 ! D79   D(8,14,26,43)          62.2311         estimate D2E/DX2                !
 ! D80   D(8,14,26,44)        -177.6465         estimate D2E/DX2                !
 ! D81   D(16,14,26,42)        176.5985         estimate D2E/DX2                !
 ! D82   D(16,14,26,43)        -63.6644         estimate D2E/DX2                !
 ! D83   D(16,14,26,44)         56.458          estimate D2E/DX2                !
 ! D84   D(34,14,26,42)         58.5452         estimate D2E/DX2                !
 ! D85   D(34,14,26,43)        178.2823         estimate D2E/DX2                !
 ! D86   D(34,14,26,44)        -61.5953         estimate D2E/DX2                !
 ! D87   D(8,15,17,7)          -52.4373         estimate D2E/DX2                !
 ! D88   D(8,15,17,38)          66.4141         estimate D2E/DX2                !
 ! D89   D(8,15,17,39)        -175.4653         estimate D2E/DX2                !
 ! D90   D(27,15,17,7)        -176.8124         estimate D2E/DX2                !
 ! D91   D(27,15,17,38)        -57.961          estimate D2E/DX2                !
 ! D92   D(27,15,17,39)         60.1596         estimate D2E/DX2                !
 ! D93   D(35,15,17,7)          63.8809         estimate D2E/DX2                !
 ! D94   D(35,15,17,38)       -177.2677         estimate D2E/DX2                !
 ! D95   D(35,15,17,39)        -59.147          estimate D2E/DX2                !
 ! D96   D(8,15,27,45)         179.767          estimate D2E/DX2                !
 ! D97   D(8,15,27,46)         -60.3796         estimate D2E/DX2                !
 ! D98   D(8,15,27,47)          59.8403         estimate D2E/DX2                !
 ! D99   D(17,15,27,45)        -55.2322         estimate D2E/DX2                !
 ! D100  D(17,15,27,46)         64.6212         estimate D2E/DX2                !
 ! D101  D(17,15,27,47)       -175.1588         estimate D2E/DX2                !
 ! D102  D(35,15,27,45)         62.9301         estimate D2E/DX2                !
 ! D103  D(35,15,27,46)       -177.2165         estimate D2E/DX2                !
 ! D104  D(35,15,27,47)        -56.9965         estimate D2E/DX2                !
 ! D105  D(7,18,21,1)            8.5839         estimate D2E/DX2                !
 ! D106  D(7,18,21,13)        -177.8103         estimate D2E/DX2                !
 ! D107  D(24,18,21,1)        -170.5771         estimate D2E/DX2                !
 ! D108  D(24,18,21,13)          3.0287         estimate D2E/DX2                !
 ! D109  D(7,18,24,2)            3.6363         estimate D2E/DX2                !
 ! D110  D(7,18,24,22)         179.8592         estimate D2E/DX2                !
 ! D111  D(21,18,24,2)        -177.2177         estimate D2E/DX2                !
 ! D112  D(21,18,24,22)         -0.9948         estimate D2E/DX2                !
 ! D113  D(6,19,23,25)          -3.8686         estimate D2E/DX2                !
 ! D114  D(6,19,23,28)         174.5104         estimate D2E/DX2                !
 ! D115  D(40,19,23,25)        177.8895         estimate D2E/DX2                !
 ! D116  D(40,19,23,28)         -3.7315         estimate D2E/DX2                !
 ! D117  D(13,20,22,9)         179.3783         estimate D2E/DX2                !
 ! D118  D(13,20,22,24)          1.6121         estimate D2E/DX2                !
 ! D119  D(25,20,22,9)          -0.7656         estimate D2E/DX2                !
 ! D120  D(25,20,22,24)       -178.5318         estimate D2E/DX2                !
 ! D121  D(13,20,25,3)        -179.2549         estimate D2E/DX2                !
 ! D122  D(13,20,25,23)          3.0709         estimate D2E/DX2                !
 ! D123  D(22,20,25,3)           0.8945         estimate D2E/DX2                !
 ! D124  D(22,20,25,23)       -176.7798         estimate D2E/DX2                !
 ! D125  D(9,22,24,2)           -2.7279         estimate D2E/DX2                !
 ! D126  D(9,22,24,18)        -179.0677         estimate D2E/DX2                !
 ! D127  D(20,22,24,2)         175.0806         estimate D2E/DX2                !
 ! D128  D(20,22,24,18)         -1.2593         estimate D2E/DX2                !
 ! D129  D(19,23,25,3)        -178.0466         estimate D2E/DX2                !
 ! D130  D(19,23,25,20)         -0.3751         estimate D2E/DX2                !
 ! D131  D(28,23,25,3)           3.8104         estimate D2E/DX2                !
 ! D132  D(28,23,25,20)       -178.518          estimate D2E/DX2                !
 ! D133  D(19,23,28,4)        -160.4346         estimate D2E/DX2                !
 ! D134  D(19,23,28,5)          16.5067         estimate D2E/DX2                !
 ! D135  D(25,23,28,4)          17.7952         estimate D2E/DX2                !
 ! D136  D(25,23,28,5)        -165.2636         estimate D2E/DX2                !
 --------------------------------------------------------------------------------
 Trust Radius=3.00D-01 FncErr=1.00D-07 GrdErr=1.00D-06
 Number of steps in this run=    293 maximum allowed number of steps=    300.
 GradGradGradGradGradGradGradGradGradGradGradGradGradGradGradGradGradGrad

                          Input orientation:                          
 ---------------------------------------------------------------------
 Center     Atomic      Atomic             Coordinates (Angstroms)
 Number     Number       Type             X           Y           Z
 ---------------------------------------------------------------------
      1          9           0        8.319000   -7.056000   -5.250000
      2          9           0        9.175000   -2.457000   -6.105000
      3          8           0        4.130000   -2.800000   -6.322000
      4          8           0        1.666000   -4.037000   -6.743000
      5          8           0        1.479000   -6.044000   -5.711000
      6          7           0        5.517000   -6.638000   -5.678000
      7          7           0       10.170000   -5.069000   -5.642000
      8          7           0       12.900000   -4.852000   -6.550000
      9          7           0        6.561000   -1.917000   -6.247000
     10          6           0        5.910000   -8.039000   -5.604000
     11          6           0        6.379000   -8.732000   -6.851000
     12          6           0        5.056000   -9.100000   -6.237000
     13          6           0        6.468000   -5.598000   -5.779000
     14          6           0       11.932000   -5.716000   -7.243000
     15          6           0       12.250000   -3.734000   -5.844000
     16          6           0       10.801000   -6.201000   -6.310000
     17          6           0       11.118000   -4.222000   -4.927000
     18          6           0        8.816000   -4.798000   -5.743000
     19          6           0        4.196000   -6.350000   -5.730000
     20          6           0        5.989000   -4.269000   -5.983000
     21          6           0        7.842000   -5.821000   -5.639000
     22          6           0        6.944000   -3.204000   -6.043000
     23          6           0        3.664000   -5.112000   -5.979000
     24          6           0        8.303000   -3.513000   -5.934000
     25          6           0        4.557000   -3.970000   -6.128000
     26          6           0       12.640000   -6.883000   -7.913000
     27          6           0       13.276000   -2.917000   -5.078000
     28          6           0        2.191000   -5.111000   -6.104000
     29          1           0        6.406000   -8.297000   -4.672000
     30          1           0        7.221000   -9.415000   -6.761000
     31          1           0        6.340000   -8.152000   -7.773000
     32          1           0        4.157000   -8.810000   -6.775000
     33          1           0        4.968000  -10.043000   -5.700000
     34          1           0       11.465000   -5.085000   -8.018000
     35          1           0       11.789000   -3.098000   -6.620000
     36          1           0       10.048000   -6.752000   -6.885000
     37          1           0       11.231000   -6.894000   -5.559000
     38          1           0       11.567000   -4.824000   -4.109000
     39          1           0       10.591000   -3.379000   -4.470000
     40          1           0        3.519000   -7.189000   -5.586000
     41          1           0       13.461000   -5.416000   -5.889000
     42          1           0       13.398000   -6.512000   -8.616000
     43          1           0       13.147000   -7.523000   -7.173000
     44          1           0       11.929000   -7.512000   -8.469000
     45          1           0       12.795000   -2.079000   -4.553000
     46          1           0       13.792000   -3.537000   -4.326000
     47          1           0       14.032000   -2.503000   -5.758000
     48          1           0        5.546000   -1.781000   -6.391000
     49          1           0        7.268000   -1.195000   -6.367000
     50          1           0        0.700000   -4.227000   -6.830000
 ---------------------------------------------------------------------
                    Distance matrix (angstroms):
                    1          2          3          4          5
     1  F    0.000000
     2  F    4.755477   0.000000
     3  O    6.067161   5.061301   0.000000
     4  O    7.456931   7.699904   2.789033   0.000000
     5  O    6.929810   8.500013   4.233752   2.264518   0.000000
     6  N    2.865155   5.571719   4.131434   4.767560   4.081589
     7  N    2.743726   2.833185   6.487863   8.636854   8.745791
     8  N    5.247207   4.450806   9.009750  11.265178  11.513645
     9  N    5.522128   2.672968   2.587484   5.357373   6.568573
    10  C    2.625811   6.486135   5.579520   5.943472   4.860580
    11  C    3.022545   6.910120   6.366040   6.653349   5.703941
    12  C    3.974830   7.817483   6.368257   6.114091   4.733998
    13  C    2.414913   4.159328   3.686448   5.140547   5.009357
    14  C    4.338366   4.417825   8.379887  10.414403  10.569760
    15  C    5.180857   3.339832   8.187505  10.626432  11.016725
    16  C    2.831069   4.086984   7.487936   9.397798   9.342544
    17  C    3.996284   2.877179   7.266378   9.626650   9.840968
    18  C    2.364027   2.395873   5.126972   7.259588   7.442117
    19  C    4.210459   6.331391   3.599628   3.574498   2.734243
    20  C    3.705882   3.667264   2.393483   4.395424   4.854349
    21  C    1.379882   3.648361   4.834447   6.522611   6.367314
    22  C    4.166219   2.353553   2.856511   5.388986   6.167824
    23  C    5.097019   6.118498   2.383306   2.394019   2.390538
    24  C    3.608457   1.380131   4.251217   6.706626   7.281666
    25  C    4.944383   4.859591   1.260502   2.956450   3.734896
    26  C    5.078636   5.904622   9.571952  11.397249  11.407044
    27  C    6.460089   4.252591   9.230956  11.782136  12.220803
    28  C    6.485732   7.471277   3.024560   1.355515   1.237692
    29  H    2.352389   6.620155   6.174114   6.701063   5.516417
    30  H    3.008921   7.256874   7.314727   7.731832   6.740675
    31  H    3.388685   6.576661   5.969372   6.311925   5.685493
    32  H    4.767010   8.123413   6.027109   5.384017   3.994313
    33  H    4.511526   8.683909   7.317799   6.932755   5.307094
    34  H    4.630765   3.976186   7.867647   9.937018  10.293791
    35  H    5.439077   2.740274   7.670586  10.167201  10.761101
    36  H    2.398975   4.451691   7.138487   8.811885   8.677978
    37  H    2.932826   4.920592   8.232084  10.052538   9.790154
    38  H    4.102829   3.912591   8.018910  10.275560  10.287009
    39  H    4.392119   2.351248   6.746085   9.233370   9.574490
    40  H    4.813583   7.392667   4.492030   3.835018   2.342701
    41  H    5.434895   5.212690   9.700438  11.906006  11.999766
    42  H    6.117363   6.370390  10.243886  12.135633  12.276832
    43  H    5.217816   6.525470  10.214559  12.006267  11.851882
    44  H    4.858189   6.223025   9.361461  10.971958  10.907066
    45  H    6.729852   3.956765   8.873073  11.510191  12.046329
    46  H    6.571976   5.064379   9.893504  12.374642  12.641726
    47  H    7.322994   4.869597   9.922495  12.499653  13.042956
    48  H    6.067704   3.702487   1.745903   4.501982   5.930941
    49  H    6.058351   2.301725   3.524925   6.292912   7.579951
    50  H    8.279420   8.688161   3.749572   0.988345   2.271671
                    6          7          8          9         10
     6  N    0.000000
     7  N    4.910546   0.000000
     8  N    7.645840   2.885213   0.000000
     9  N    4.868423   4.829701   6.992064   0.000000
    10  C    1.456958   5.193259   7.740283   6.190003   0.000000
    11  C    2.550257   5.408413   7.593974   6.844134   1.501739
    12  C    2.566407   6.538806   8.925907   7.338979   1.501907
    13  C    1.412870   3.742114   6.520857   3.711797   2.510074
    14  C    6.667198   2.467074   1.470976   6.653725   6.659364
    15  C    7.334443   2.479804   1.473384   5.985701   7.667218
    16  C    5.339574   1.458015   2.506632   6.027788   5.272434
    17  C    6.145914   1.458540   2.491295   5.274625   6.492386
    18  C    3.777992   1.384543   4.163319   3.693129   4.355254
    19  C    1.353030   6.110432   8.869950   5.050941   2.409646
    20  C    2.434742   4.270485   6.958685   2.434909   3.789826
    21  C    2.464677   2.446446   5.229937   4.153534   2.941662
    22  C    3.736564   3.747813   6.200556   1.358188   4.963779
    23  C    2.419274   6.514864   9.257286   4.321164   3.708432
    24  C    4.194396   2.447874   4.827503   2.383222   5.130305
    25  C    2.870945   5.740189   8.400099   2.871408   4.319947
    26  C    7.469430   3.814307   2.459742   8.024397   7.208378
    27  C    8.626003   3.820528   2.460160   6.888961   8.987186
    28  C    3.684492   7.992475  10.721412   5.414701   4.759637
    29  H    2.134160   5.052582   7.587288   6.573359   1.086832
    30  H    3.433400   5.369961   7.288109   7.544521   2.225027
    31  H    2.712665   5.358633   7.444416   6.422830   2.214098
    32  H    2.787578   7.171816   9.599814   7.319252   2.244703
    33  H    3.449045   7.197558   9.517647   8.298719   2.216438
    34  H    6.577698   2.706041   2.066044   6.100974   6.738808
    35  H    7.263398   2.731755   2.077435   5.372697   7.746507
    36  H    4.690395   2.095811   3.443273   5.995285   4.518891
    37  H    5.720970   2.112637   2.817340   6.859502   5.442985
    38  H    6.508061   2.088474   2.781394   6.171040   6.676294
    39  H    6.150270   2.099268   3.439129   4.640697   6.701740
    40  H    2.074625   6.980927   9.715659   6.122472   2.537657
    41  H    8.040208   3.318448   1.034281   7.744751   7.998685
    42  H    8.411770   4.620272   2.696657   8.571508   8.214257
    43  H    7.825289   4.150736   2.753794   8.698282   7.423085
    44  H    7.047503   4.129680   3.420673   8.065775   6.686876
    45  H    8.661373   4.125124   3.418854   6.462092   9.166757
    46  H    8.939784   4.147019   2.733325   7.655194   9.166636
    47  H    9.466248   4.638195   2.725159   7.509884   9.830458
    48  H    4.909140   5.723052   7.971050   1.034146   6.317787
    49  H    5.759077   4.894395   6.717631   1.017611   7.019022
    50  H    5.508495   9.581295  12.219207   6.326714   6.571036
                   11         12         13         14         15
    11  C    0.000000
    12  C    1.504244   0.000000
    13  C    3.313467   3.803618   0.000000
    14  C    6.331329   7.729351   5.657960   0.000000
    15  C    7.775776   8.983431   6.075380   2.446763   0.000000
    16  C    5.123741   6.435414   4.406865   1.544304   2.898766
    17  C    6.819091   7.890426   4.923594   2.873759   1.536378
    18  C    4.758465   5.734879   2.480806   3.578013   3.596478
    19  C    3.419949   2.925602   2.393719   7.908023   8.468965
    20  C    4.563320   4.926821   1.427339   6.245051   6.285353
    21  C    3.476095   4.344104   1.399001   4.394535   4.881399
    22  C    5.615236   6.193948   2.455098   5.712293   5.336116
    23  C    4.608254   4.231828   2.852825   8.385841   8.696925
    24  C    5.637431   6.469110   2.781811   4.442559   3.954207
    25  C    5.149666   5.155364   2.534582   7.660442   7.701857
    26  C    6.614134   8.077198   6.655732   1.520544   3.788016
    27  C    9.193822  10.350902   7.350376   3.785229   1.518855
    28  C    5.586501   4.913047   4.316888   9.826008  10.156141
    29  H    2.222160   2.217326   2.917858   6.618782   7.506456
    30  H    1.087912   2.249672   4.012583   6.009030   7.642349
    31  H    1.089956   2.215097   3.242736   6.122537   7.626786
    32  H    2.224667   1.087081   4.080402   8.381079   9.598395
    33  H    2.243756   1.088743   4.691936   8.342726   9.635961
    34  H    6.366309   7.769650   5.499664   1.103121   2.677256
    35  H    7.814308   9.027956   5.938882   2.694903   1.104171
    36  H    4.169307   5.554554   3.920632   2.179660   3.878248
    37  H    5.346907   6.592173   4.941071   2.171391   3.332444
    38  H    7.050275   8.075003   5.421049   3.278848   2.159818
    39  H    7.215588   8.154039   4.861746   3.866443   2.183159
    40  H    3.487216   2.537339   3.356357   8.700227   9.393293
    41  H    7.878834   9.183517   6.996233   2.064257   2.073082
    42  H    7.570336   9.052422   7.543796   2.160533   4.088908
    43  H    6.882673   8.296222   7.089281   2.178617   4.114289
    44  H    5.908369   7.398763   6.381380   2.174558   4.611610
    45  H    9.524089  10.584064   7.342845   4.605284   2.168578
    46  H    9.397671  10.531694   7.745961   4.088585   2.172763
    47  H    9.927915  11.149817   8.172733   4.115652   2.167552
    48  H    7.015831   7.337001   3.974181   7.549247   7.004073
    49  H    7.604666   8.209681   4.513552   6.554366   5.616082
    50  H    7.248897   6.562965   6.021135  11.337791  11.602489
                   16         17         18         19         20
    16  C    0.000000
    17  C    2.435081   0.000000
    18  C    2.496021   2.509350   0.000000
    19  C    6.632091   7.286102   4.873733   0.000000
    20  C    5.195661   5.236792   2.886065   2.758518   0.000000
    21  C    3.057830   3.714286   1.416341   3.685300   2.441444
    22  C    4.891804   4.438925   2.476938   4.188889   1.431730
    23  C    7.227188   7.580298   5.166952   1.370281   2.473113
    24  C    3.688729   3.072614   1.396737   4.995762   2.434858
    25  C    6.633100   6.674775   4.355788   2.439903   1.470051
    26  C    2.533112   4.279439   4.866118   8.737890   7.402276
    27  C    4.292797   2.526418   4.885897   9.729183   7.466411
    28  C    8.681166   9.048037   6.642207   2.386425   3.892096
    29  H    5.137342   6.234869   4.381568   3.129580   4.256453
    30  H    4.832142   6.746659   4.989693   4.428071   5.348310
    31  H    5.084023   6.809838   4.636895   3.466668   4.290104
    32  H    7.153030   8.539342   6.234376   2.673041   4.960259
    33  H    7.011202   8.503180   6.505304   3.772948   5.870401
    34  H    2.145604   3.227919   3.503597   7.724864   5.898615
    35  H    3.271216   2.140062   3.535231   8.307903   5.951219
    36  H    1.096009   3.373361   2.576840   5.978422   4.842972
    37  H    1.108670   2.748050   3.203014   7.058074   5.877837
    38  H    2.706896   1.110463   3.199786   7.699867   5.910498
    39  H    3.375409   1.094179   2.604749   7.163132   4.925411
    40  H    7.384297   8.184264   5.813754   1.087652   3.845115
    41  H    2.805186   2.800130   4.688205   9.313316   7.560108
    42  H    3.486942   4.904204   5.673328   9.645312   8.176614
    43  H    2.827750   4.478611   5.313011   9.142132   7.952457
    44  H    2.766295   4.901794   4.948499   8.285629   7.209774
    45  H    4.904485   2.746753   4.964021   9.673137   7.291271
    46  H    4.469814   2.825014   5.325278  10.097891   8.010511
    47  H    4.941586   3.483808   5.698588  10.561586   8.237671
    48  H    6.867167   6.256913   4.496120   4.809905   2.559855
    49  H    6.127428   5.104785   3.970805   6.034648   3.351533
    50  H   10.305206  10.590380   8.208353   4.235463   5.356556
                   21         22         23         24         25
    21  C    0.000000
    22  C    2.796124   0.000000
    23  C    4.251349   3.795123   0.000000
    24  C    2.372005   1.397942   4.907051   0.000000
    25  C    3.802177   2.508336   1.457331   3.778757   0.000000
    26  C    5.414769   7.033943   9.351223   5.838057   8.775345
    27  C    6.186784   6.411538   9.900524   5.081209   8.844901
    28  C    5.714379   5.121658   1.478295   6.319735   2.626864
    29  H    3.021218   5.301673   4.401254   5.298859   4.925613
    30  H    3.815935   6.258496   5.637338   6.057083   6.094720
    31  H    3.499074   5.276402   4.429561   5.362426   4.834691
    32  H    4.878918   6.303208   3.814691   6.778997   4.899409
    33  H    5.107728   7.127001   5.108133   7.336067   6.101921
    34  H    4.396301   5.279984   8.063117   4.100303   7.248158
    35  H    4.894476   4.880388   8.395398   3.577012   7.300977
    36  H    2.699206   4.788746   6.653262   3.800072   6.201907
    37  H    3.555707   5.677035   7.785333   4.488315   7.308612
    38  H    4.148558   5.266582   8.126331   3.962706   7.344779
    39  H    3.858358   3.975621   7.298198   2.719595   6.285491
    40  H    4.534596   5.274438   2.118821   6.043239   3.425371
    41  H    5.639121   6.883891   9.802129   5.498036   9.023816
    42  H    6.341068   7.695278  10.181578   6.492007   9.529700
    43  H    5.778666   7.642504   9.857274   6.409334   9.354354
    44  H    5.250900   7.021009   8.959371   5.963732   8.507199
    45  H    6.301918   6.141655   9.726650   4.913408   8.597741
    46  H    6.507160   7.067820  10.382168   5.719734   9.419125
    47  H    7.024200   7.128280  10.693510   5.820010   9.595031
    48  H    4.707305   2.024954   3.848016   3.287814   2.416405
    49  H    4.717980   2.060590   5.336876   2.575236   3.886807
    50  H    7.414006   6.376005   3.208227   7.688837   3.928779
                   26         27         28         29         30
    26  C    0.000000
    27  C    4.916389   0.000000
    28  C   10.751468  11.346521   0.000000
    29  H    7.167024   8.735338   5.474253   0.000000
    30  H    6.091280   9.039885   6.652591   2.505608   0.000000
    31  H    6.428060   9.098151   5.408091   3.105090   1.842681
    32  H    8.773236  10.989241   4.242405   3.121503   3.123190
    33  H    8.587348  10.963103   5.674466   2.484581   2.568290
    34  H    2.150454   4.077198   9.469485   6.863391   6.191969
    35  H    4.089288   2.149813   9.820388   7.733110   7.796858
    36  H    2.791489   5.328457   8.064446   4.533052   3.885727
    37  H    2.743486   4.497768   9.230261   5.102529   4.886752
    38  H    4.456594   2.737936   9.590191   6.246168   6.855516
    39  H    5.322656   2.791475   8.730967   6.460786   7.282779
    40  H    9.418132  10.663353   2.519919   3.224566   4.476662
    41  H    2.631104   2.633808  11.276176   7.717142   7.462572
    42  H    1.098369   5.045429  11.570211   8.223711   7.072748
    43  H    1.101930   5.061709  11.269181   7.231539   6.234331
    44  H    1.100135   5.867479  10.304692   6.748108   5.357606
    45  H    5.864473   1.099650  11.137479   8.916109   9.474262
    46  H    5.038788   1.102796  11.841535   8.793766   9.146483
    47  H    5.076031   1.097876  12.129743   9.638761   9.755587
    48  H    8.869708   7.922586   4.735746   6.793586   7.824352
    49  H    7.975076   6.381447   6.417176   7.352175   8.229571
    50  H   12.279692  12.764849   1.879259   7.333505   8.333279
                   31         32         33         34         35
    31  H    0.000000
    32  H    2.488867   0.000000
    33  H    3.123395   1.825824   0.000000
    34  H    5.977637   8.296236   8.495051   0.000000
    35  H    7.520899   9.534065   9.777805   2.451030   0.000000
    36  H    4.061749   6.241101   6.167763   2.463832   4.056232
    37  H    5.514185   7.429077   7.011508   3.061685   3.980792
    38  H    7.198751   8.826316   8.562479   3.919031   3.055075
    39  H    7.194605   8.729556   8.805676   4.032693   2.477229
    40  H    3.697077   2.109124   3.202798   8.572068   9.284306
    41  H    7.857722   9.943271   9.673464   2.937042   2.950096
    42  H    7.294903   9.698771   9.593535   2.475969   4.269461
    43  H    6.862280   9.090373   8.684248   3.080096   4.661609
    44  H    5.668416   8.059679   7.907518   2.511777   4.787671
    45  H    9.429568  11.174018  11.225098   4.776103   2.514535
    46  H    9.418723  11.253238  11.048932   4.630561   3.076876
    47  H    9.753886  11.761299  11.790295   4.285302   2.475504
    48  H    6.567344   7.175209   8.310969   6.971234   6.384511
    49  H    7.158063   8.236080   9.166351   5.955897   4.911706
    50  H    6.935739   5.740885   7.301957  10.864287  11.148303
                   36         37         38         39         40
    36  H    0.000000
    37  H    1.782675   0.000000
    38  H    3.705499   2.549568   0.000000
    39  H    4.183802   3.735070   1.780708   0.000000
    40  H    6.671298   7.717687   8.517339   8.110163   0.000000
    41  H    3.798089   2.695605   2.665727   3.794711  10.103401
    42  H    3.778420   3.766572   5.149267   5.906289  10.355379
    43  H    3.206429   2.582962   4.378253   5.568849   9.763632
    44  H    2.573872   3.055688   5.134782   5.904569   8.896298
    45  H    5.900946   5.161623   3.039761   2.560177  10.640647
    46  H    5.558979   4.398688   2.579551   3.208130  10.975392
    47  H    5.932654   5.212109   3.765962   3.777142  11.511357
    48  H    6.724796   7.691178   7.121784   5.629909   5.831228
    49  H    6.235140   6.988336   6.062145   4.405768   7.112876
    50  H    9.683169  10.937563  11.218375  10.203949   4.274078
                   41         42         43         44         45
    41  H    0.000000
    42  H    2.939679   0.000000
    43  H    2.487308   1.779711   0.000000
    44  H    3.660142   1.783135   1.778556   0.000000
    45  H    3.655683   6.043432   6.051896   6.752962   0.000000
    46  H    2.466409   5.235452   4.940610   6.036211   1.780815
    47  H    2.971325   4.964091   5.290165   6.071426   1.778193
    48  H    8.724245   9.433286   9.558101   8.826389   7.484320
    49  H    7.509898   8.420534   8.675014   8.126981   5.883858
    50  H   12.850771  13.024985  12.880570  11.813890  12.493505
                   46         47         48         49         50
    46  H    0.000000
    47  H    1.782521   0.000000
    48  H    8.680108   8.540150   0.000000
    49  H    7.225872   6.916172   1.819136   0.000000
    50  H   13.347156  13.485681   5.446040   7.248863   0.000000
 Stoichiometry    C19H22F2N4O3
 Framework group  C1[X(C19H22F2N4O3)]
 Deg. of freedom   144
 Full point group                 C1      NOp   1
 Largest Abelian subgroup         C1      NOp   1
 Largest concise Abelian subgroup C1      NOp   1
                         Standard orientation:                         
 ---------------------------------------------------------------------
 Center     Atomic      Atomic             Coordinates (Angstroms)
 Number     Number       Type             X           Y           Z
 ---------------------------------------------------------------------
      1          9           0        0.583715    1.900878   -0.947753
      2          9           0        1.850356   -2.535606    0.204546
      3          8           0       -3.203816   -2.625745    0.457501
      4          8           0       -5.765609   -1.585525    0.823377
      5          8           0       -6.136365    0.322196   -0.339027
      6          7           0       -2.167471    1.267035   -0.459564
      7          7           0        2.606367    0.116504   -0.444837
      8          7           0        5.350053    0.203872    0.443423
      9          7           0       -0.704380   -3.293541    0.413391
     10          6           0       -1.901090    2.688982   -0.632282
     11          6           0       -1.488391    3.503966    0.559650
     12          6           0       -2.842411    3.710985   -0.062060
     13          6           0       -1.127160    0.324425   -0.300057
     14          6           0        4.313057    1.024114    1.088103
     15          6           0        4.798009   -1.012634   -0.178044
     16          6           0        3.138021    1.342658    0.138001
     17          6           0        3.621802   -0.690108   -1.112373
     18          6           0        1.282448   -0.265568   -0.309863
     19          6           0       -3.457293    0.867649   -0.372721
     20          6           0       -1.484852   -1.024723   -0.001473
     21          6           0        0.220723    0.657911   -0.470948
     22          6           0       -0.438570   -1.994613    0.118765
     23          6           0       -3.875608   -0.392688   -0.034738
     24          6           0        0.886902   -1.574880   -0.026807
     25          6           0       -2.883715   -1.438518    0.180203
     26          6           0        4.918303    2.291989    1.669673
     27          6           0        5.888171   -1.786013   -0.899400
     28          6           0       -5.341932   -0.515326    0.107421
     29          1           0       -1.435405    2.925770   -1.585315
     30          1           0       -0.711020    4.250977    0.413975
     31          1           0       -1.470310    2.986887    1.518976
     32          1           0       -3.708923    3.379975    0.504802
     33          1           0       -3.017051    4.603780   -0.660208
     34          1           0        3.908529    0.408532    1.909255
     35          1           0        4.399908   -1.632587    0.644371
     36          1           0        2.342330    1.862819    0.683476
     37          1           0        3.500320    2.018218   -0.662941
     38          1           0        4.010733   -0.107862   -1.974261
     39          1           0        3.169246   -1.605516   -1.505374
     40          1           0       -4.207063    1.631796   -0.564839
     41          1           0        5.854826    0.768937   -0.260597
     42          1           0        5.710353    2.038123    2.387045
     43          1           0        5.362073    2.922432    0.882362
     44          1           0        4.157396    2.892082    2.190450
     45          1           0        5.480594   -2.697015   -1.361121
     46          1           0        6.342615   -1.175467   -1.697443
     47          1           0        6.681921   -2.084352   -0.202058
     48          1           0       -1.702409   -3.508576    0.578182
     49          1           0        0.064725   -3.940401    0.573340
     50          1           0       -6.744161   -1.476144    0.908792
 ---------------------------------------------------------------------
 Rotational constants (GHZ):      0.3314502      0.1011858      0.0817374
 Standard basis: 3-21G (6D, 7F)
 There are   296 symmetry adapted cartesian basis functions of A   symmetry.
 There are   296 symmetry adapted basis functions of A   symmetry.
   296 basis functions,   486 primitive gaussians,   296 cartesian basis functions
   103 alpha electrons      103 beta electrons
       nuclear repulsion energy      2747.5620360841 Hartrees.
 NAtoms=   50 NActive=   50 NUniq=   50 SFac= 1.00D+00 NAtFMM=   60 NAOKFM=F Big=F
 Integral buffers will be    131072 words long.
 Raffenetti 2 integral format.
 Two-electron integral symmetry is turned on.
 One-electron integrals computed using PRISM.
 PrsmSu:  requested number of processors reduced to:   9 ShMem   1 Linda.
 NBasis=   296 RedAO= T EigKep=  1.16D-03  NBF=   296
 NBsUse=   296 1.00D-06 EigRej= -1.00D+00 NBFU=   296
 ExpMin= 1.83D-01 ExpMax= 4.14D+02 ExpMxC= 4.14D+02 IAcc=1 IRadAn=         1 AccDes= 0.00D+00
 Harris functional with IExCor=  402 and IRadAn=       1 diagonalized for initial guess.
 HarFok:  IExCor=  402 AccDes= 0.00D+00 IRadAn=         1 IDoV= 1 UseB2=F ITyADJ=14
 ICtDFT=  3500011 ScaDFX=  1.000000  1.000000  1.000000  1.000000
 FoFCou: FMM=F IPFlag=           0 FMFlag=      100000 FMFlg1=           0
         NFxFlg=           0 DoJE=T BraDBF=F KetDBF=T FulRan=T
         wScrn=  0.000000 ICntrl=     500 IOpCl=  0 I1Cent=   200000004 NGrid=           0
         NMat0=    1 NMatS0=      1 NMatT0=    0 NMatD0=    1 NMtDS0=    0 NMtDT0=    0
 Petite list used in FoFCou.
 Requested convergence on RMS density matrix=1.00D-08 within 128 cycles.
 Requested convergence on MAX density matrix=1.00D-06.
 Requested convergence on             energy=1.00D-06.
 No special actions if energy rises.
 Integral accuracy reduced to 1.0D-05 until final iterations.
 Initial convergence to 1.0D-05 achieved.  Increase integral accuracy.
 SCF Done:  E(RB3LYP) =  -1374.04047190     A.U. after   17 cycles
            NFock= 17  Conv=0.52D-08     -V/T= 2.0082

 **********************************************************************

            Population analysis using the SCF density.

 **********************************************************************

 Orbital symmetries:
       Occupied  (A) (A) (A) (A) (A) (A) (A) (A) (A) (A) (A) (A)
                 (A) (A) (A) (A) (A) (A) (A) (A) (A) (A) (A) (A)
                 (A) (A) (A) (A) (A) (A) (A) (A) (A) (A) (A) (A)
                 (A) (A) (A) (A) (A) (A) (A) (A) (A) (A) (A) (A)
                 (A) (A) (A) (A) (A) (A) (A) (A) (A) (A) (A) (A)
                 (A) (A) (A) (A) (A) (A) (A) (A) (A) (A) (A) (A)
                 (A) (A) (A) (A) (A) (A) (A) (A) (A) (A) (A) (A)
                 (A) (A) (A) (A) (A) (A) (A) (A) (A) (A) (A) (A)
                 (A) (A) (A) (A) (A) (A) (A)
       Virtual   (A) (A) (A) (A) (A) (A) (A) (A) (A) (A) (A) (A)
                 (A) (A) (A) (A) (A) (A) (A) (A) (A) (A) (A) (A)
                 (A) (A) (A) (A) (A) (A) (A) (A) (A) (A) (A) (A)
                 (A) (A) (A) (A) (A) (A) (A) (A) (A) (A) (A) (A)
                 (A) (A) (A) (A) (A) (A) (A) (A) (A) (A) (A) (A)
                 (A) (A) (A) (A) (A) (A) (A) (A) (A) (A) (A) (A)
                 (A) (A) (A) (A) (A) (A) (A) (A) (A) (A) (A) (A)
                 (A) (A) (A) (A) (A) (A) (A) (A) (A) (A) (A) (A)
                 (A) (A) (A) (A) (A) (A) (A) (A) (A) (A) (A) (A)
                 (A) (A) (A) (A) (A) (A) (A) (A) (A) (A) (A) (A)
                 (A) (A) (A) (A) (A) (A) (A) (A) (A) (A) (A) (A)
                 (A) (A) (A) (A) (A) (A) (A) (A) (A) (A) (A) (A)
                 (A) (A) (A) (A) (A) (A) (A) (A) (A) (A) (A) (A)
                 (A) (A) (A) (A) (A) (A) (A) (A) (A) (A) (A) (A)
                 (A) (A) (A) (A) (A) (A) (A) (A) (A) (A) (A) (A)
                 (A) (A) (A) (A) (A) (A) (A) (A) (A) (A) (A) (A)
                 (A)
 The electronic state is 1-A.
 Alpha  occ. eigenvalues --  -24.57626 -24.57581 -19.07028 -19.01158 -19.00199
 Alpha  occ. eigenvalues --  -14.34210 -14.27733 -14.24787 -14.23284 -10.25064
 Alpha  occ. eigenvalues --  -10.21008 -10.20337 -10.20267 -10.20124 -10.19283
 Alpha  occ. eigenvalues --  -10.19267 -10.19128 -10.18751 -10.15692 -10.15548
 Alpha  occ. eigenvalues --  -10.15370 -10.15141 -10.15115 -10.14624 -10.14517
 Alpha  occ. eigenvalues --  -10.13749 -10.11808 -10.11590  -1.21068  -1.20971
 Alpha  occ. eigenvalues --   -1.09820  -1.02155  -1.01191  -1.00282  -0.96642
 Alpha  occ. eigenvalues --   -0.92428  -0.90868  -0.89436  -0.85048  -0.81020
 Alpha  occ. eigenvalues --   -0.80117  -0.78065  -0.74038  -0.72673  -0.70676
 Alpha  occ. eigenvalues --   -0.69754  -0.67990  -0.65878  -0.63646  -0.62340
 Alpha  occ. eigenvalues --   -0.61282  -0.60705  -0.59580  -0.59019  -0.57004
 Alpha  occ. eigenvalues --   -0.56025  -0.54683  -0.53486  -0.52264  -0.51757
 Alpha  occ. eigenvalues --   -0.50100  -0.49607  -0.48793  -0.48034  -0.47844
 Alpha  occ. eigenvalues --   -0.46584  -0.46374  -0.45876  -0.45282  -0.44690
 Alpha  occ. eigenvalues --   -0.44518  -0.43862  -0.43812  -0.43244  -0.43169
 Alpha  occ. eigenvalues --   -0.42211  -0.41430  -0.40910  -0.40180  -0.39071
 Alpha  occ. eigenvalues --   -0.38951  -0.38467  -0.38183  -0.37769  -0.37405
 Alpha  occ. eigenvalues --   -0.37004  -0.36627  -0.36351  -0.35209  -0.34337
 Alpha  occ. eigenvalues --   -0.34081  -0.33593  -0.33066  -0.32341  -0.30931
 Alpha  occ. eigenvalues --   -0.29243  -0.27976  -0.25831  -0.23221  -0.22971
 Alpha  occ. eigenvalues --   -0.22100  -0.18923  -0.18538
 Alpha virt. eigenvalues --   -0.03450  -0.03037   0.02548   0.04009   0.07118
 Alpha virt. eigenvalues --    0.09482   0.09879   0.10304   0.11315   0.11546
 Alpha virt. eigenvalues --    0.11872   0.12203   0.12584   0.13336   0.14036
 Alpha virt. eigenvalues --    0.14627   0.15581   0.15813   0.16329   0.16648
 Alpha virt. eigenvalues --    0.17231   0.17338   0.18247   0.18719   0.19236
 Alpha virt. eigenvalues --    0.19608   0.19749   0.20475   0.21442   0.21621
 Alpha virt. eigenvalues --    0.22114   0.22753   0.23311   0.23840   0.24286
 Alpha virt. eigenvalues --    0.24672   0.25688   0.25843   0.26768   0.27953
 Alpha virt. eigenvalues --    0.28658   0.29132   0.29263   0.30090   0.30871
 Alpha virt. eigenvalues --    0.31153   0.31947   0.34118   0.34903   0.38341
 Alpha virt. eigenvalues --    0.40207   0.42418   0.43807   0.45446   0.46698
 Alpha virt. eigenvalues --    0.51211   0.55395   0.59666   0.63397   0.64216
 Alpha virt. eigenvalues --    0.65159   0.65977   0.67072   0.67414   0.67723
 Alpha virt. eigenvalues --    0.68689   0.69711   0.70039   0.70553   0.70927
 Alpha virt. eigenvalues --    0.71193   0.72251   0.73044   0.73259   0.73691
 Alpha virt. eigenvalues --    0.74357   0.74764   0.74969   0.75368   0.75900
 Alpha virt. eigenvalues --    0.76888   0.77610   0.78040   0.78152   0.78775
 Alpha virt. eigenvalues --    0.79614   0.79891   0.81531   0.82462   0.82916
 Alpha virt. eigenvalues --    0.84164   0.85200   0.85554   0.85926   0.87083
 Alpha virt. eigenvalues --    0.88772   0.89493   0.90534   0.91699   0.92100
 Alpha virt. eigenvalues --    0.92295   0.94093   0.94962   0.95714   0.96505
 Alpha virt. eigenvalues --    0.98524   0.98775   1.01197   1.02230   1.03300
 Alpha virt. eigenvalues --    1.04371   1.04816   1.05803   1.06350   1.06966
 Alpha virt. eigenvalues --    1.07109   1.07476   1.08398   1.09128   1.10345
 Alpha virt. eigenvalues --    1.10653   1.10923   1.12473   1.13211   1.13635
 Alpha virt. eigenvalues --    1.14207   1.14813   1.16512   1.16783   1.19266
 Alpha virt. eigenvalues --    1.20931   1.25882   1.27762   1.31000   1.31689
 Alpha virt. eigenvalues --    1.34599   1.35763   1.37178   1.38989   1.39770
 Alpha virt. eigenvalues --    1.42536   1.44138   1.44607   1.45608   1.47998
 Alpha virt. eigenvalues --    1.48851   1.52065   1.53661   1.54509   1.56867
 Alpha virt. eigenvalues --    1.58987   1.60779   1.62923   1.63812   1.65171
 Alpha virt. eigenvalues --    1.67227   1.68995   1.70823   1.73065   1.73281
 Alpha virt. eigenvalues --    1.77943   1.80207   1.82556   1.85795   1.86684
 Alpha virt. eigenvalues --    1.88724   1.90352   1.90551   1.91786   1.94034
 Alpha virt. eigenvalues --    1.97049   1.98068   1.99640   2.02993   2.04172
 Alpha virt. eigenvalues --    2.04833   2.07578   2.08904   2.16012   2.21304
 Alpha virt. eigenvalues --    2.22309   2.29392   2.38676   2.58488   2.77531
 Alpha virt. eigenvalues --    2.80734   2.86761   2.99008   3.15130   3.40208
 Alpha virt. eigenvalues --    3.56852   3.94040   4.16565
          Condensed to atoms (all electrons):
               1          2          3          4          5          6
     1  F    9.105533   0.000000   0.000000   0.000000   0.000000  -0.003554
     2  F    0.000000   9.102681   0.000000   0.000000   0.000000   0.000000
     3  O    0.000000   0.000000   8.127773  -0.000644   0.000000  -0.000021
     4  O    0.000000   0.000000  -0.000644   8.234779  -0.064518  -0.000001
     5  O    0.000000   0.000000   0.000000  -0.064518   8.148991   0.000098
     6  N   -0.003554   0.000000  -0.000021  -0.000001   0.000098   7.429469
     7  N   -0.003930  -0.002845   0.000000   0.000000   0.000000  -0.000003
     8  N    0.000000   0.000001   0.000000   0.000000   0.000000   0.000000
     9  N    0.000000  -0.004583  -0.026275   0.000000   0.000000  -0.000003
    10  C    0.009673   0.000000   0.000000   0.000000   0.000004   0.254545
    11  C   -0.001061   0.000000   0.000000   0.000000   0.000000  -0.043681
    12  C    0.000528   0.000000   0.000000   0.000000  -0.000003  -0.024453
    13  C   -0.065424  -0.000229   0.003301  -0.000002   0.000001   0.186872
    14  C    0.000103  -0.000005   0.000000   0.000000   0.000000   0.000000
    15  C    0.000000  -0.002173   0.000000   0.000000   0.000000   0.000000
    16  C    0.005896  -0.000030   0.000000   0.000000   0.000000   0.000001
    17  C   -0.000054   0.001933   0.000000   0.000000   0.000000   0.000000
    18  C   -0.059016  -0.064811  -0.000003   0.000000   0.000000   0.004173
    19  C   -0.000037   0.000000   0.003577   0.002859   0.002922   0.249325
    20  C    0.002389   0.002750  -0.108064   0.000090  -0.000013  -0.023137
    21  C    0.292043   0.002185   0.000007   0.000000   0.000000  -0.059638
    22  C   -0.000243  -0.064834  -0.004058   0.000000   0.000000   0.005622
    23  C    0.000000   0.000000  -0.107585  -0.096200  -0.113513  -0.019847
    24  C    0.002546   0.304887   0.000179   0.000000   0.000000  -0.000498
    25  C    0.000001  -0.000003   0.568990   0.001813   0.002028  -0.038603
    26  C    0.000000   0.000000   0.000000   0.000000   0.000000   0.000000
    27  C    0.000000  -0.000007   0.000000   0.000000   0.000000   0.000000
    28  C    0.000000   0.000000  -0.003669   0.224232   0.514175   0.004522
    29  H    0.005775   0.000000   0.000000   0.000000   0.000000  -0.034307
    30  H    0.000560   0.000000   0.000000   0.000000   0.000000   0.001190
    31  H   -0.000056   0.000000   0.000000   0.000000   0.000000  -0.001226
    32  H   -0.000002   0.000000   0.000000   0.000000  -0.000019  -0.003081
    33  H    0.000000   0.000000   0.000000   0.000000   0.000000   0.001019
    34  H    0.000000  -0.000005   0.000000   0.000000   0.000000   0.000000
    35  H    0.000000   0.005379   0.000000   0.000000   0.000000   0.000000
    36  H    0.005421   0.000000   0.000000   0.000000   0.000000   0.000001
    37  H    0.000038   0.000000   0.000000   0.000000   0.000000   0.000000
    38  H   -0.000002   0.000094   0.000000   0.000000   0.000000   0.000000
    39  H   -0.000001   0.009659   0.000000   0.000000   0.000000   0.000000
    40  H    0.000000   0.000000  -0.000005   0.000262   0.020996  -0.034125
    41  H    0.000000   0.000000   0.000000   0.000000   0.000000   0.000000
    42  H    0.000000   0.000000   0.000000   0.000000   0.000000   0.000000
    43  H    0.000000   0.000000   0.000000   0.000000   0.000000   0.000000
    44  H    0.000000   0.000000   0.000000   0.000000   0.000000   0.000000
    45  H    0.000000  -0.000002   0.000000   0.000000   0.000000   0.000000
    46  H    0.000000   0.000000   0.000000   0.000000   0.000000   0.000000
    47  H    0.000000   0.000000   0.000000   0.000000   0.000000   0.000000
    48  H    0.000000   0.000016   0.081276   0.000002   0.000000   0.000001
    49  H    0.000000   0.012322   0.000467   0.000000   0.000000   0.000000
    50  H    0.000000   0.000000   0.000148   0.239223   0.005482   0.000000
               7          8          9         10         11         12
     1  F   -0.003930   0.000000   0.000000   0.009673  -0.001061   0.000528
     2  F   -0.002845   0.000001  -0.004583   0.000000   0.000000   0.000000
     3  O    0.000000   0.000000  -0.026275   0.000000   0.000000   0.000000
     4  O    0.000000   0.000000   0.000000   0.000000   0.000000   0.000000
     5  O    0.000000   0.000000   0.000000   0.000004   0.000000  -0.000003
     6  N   -0.000003   0.000000  -0.000003   0.254545  -0.043681  -0.024453
     7  N    7.267285  -0.003970  -0.000003   0.000000   0.000000   0.000000
     8  N   -0.003970   6.971252   0.000000   0.000000   0.000000   0.000000
     9  N   -0.000003   0.000000   7.165423   0.000000   0.000000   0.000000
    10  C    0.000000   0.000000   0.000000   5.402593   0.117574   0.100928
    11  C    0.000000   0.000000   0.000000   0.117574   5.531453   0.087728
    12  C    0.000000   0.000000   0.000000   0.100928   0.087728   5.571432
    13  C    0.004865   0.000000   0.004878  -0.056143  -0.001148   0.002168
    14  C   -0.056553   0.289385   0.000000   0.000000   0.000000   0.000000
    15  C   -0.052327   0.288909   0.000000   0.000000   0.000000   0.000000
    16  C    0.272681  -0.065574   0.000000  -0.000004  -0.000011   0.000000
    17  C    0.265848  -0.068932   0.000000   0.000000   0.000000   0.000000
    18  C    0.311968  -0.000130   0.005642   0.000596  -0.000079   0.000009
    19  C    0.000000   0.000000  -0.000001  -0.069810   0.004544  -0.013069
    20  C   -0.000468   0.000000  -0.056261   0.001462   0.000246  -0.000099
    21  C   -0.079128  -0.000007  -0.000507   0.003056  -0.000182   0.000643
    22  C    0.004790   0.000000   0.295242  -0.000062   0.000001   0.000000
    23  C    0.000000   0.000000  -0.000258   0.002712  -0.000240   0.000760
    24  C   -0.082512   0.000021  -0.089112  -0.000019  -0.000001   0.000000
    25  C   -0.000001   0.000000  -0.021590   0.000042   0.000007  -0.000014
    26  C    0.002637  -0.052284   0.000000   0.000000   0.000000   0.000000
    27  C    0.002556  -0.051032   0.000000   0.000000   0.000000   0.000000
    28  C    0.000000   0.000000   0.000000  -0.000049   0.000002  -0.000014
    29  H    0.000000   0.000000   0.000000   0.381977  -0.033478  -0.022657
    30  H    0.000000   0.000000   0.000000  -0.024976   0.375810  -0.023406
    31  H    0.000000   0.000000   0.000000  -0.028368   0.378478  -0.027194
    32  H    0.000000   0.000000   0.000000  -0.026573  -0.021290   0.371372
    33  H    0.000000   0.000000   0.000000  -0.025698  -0.024341   0.379913
    34  H    0.002622  -0.044708   0.000000   0.000000   0.000000   0.000000
    35  H    0.001922  -0.041655   0.000000   0.000000   0.000000   0.000000
    36  H   -0.028152   0.002584   0.000000   0.000005   0.000091   0.000000
    37  H   -0.045922   0.000282   0.000000   0.000000   0.000000   0.000000
    38  H   -0.050712   0.000163   0.000000   0.000000   0.000000   0.000000
    39  H   -0.027101   0.002663   0.000002   0.000000   0.000000   0.000000
    40  H    0.000000   0.000000   0.000000  -0.001652  -0.000372   0.001175
    41  H   -0.000276   0.311784   0.000000   0.000000   0.000000   0.000000
    42  H   -0.000039   0.003915   0.000000   0.000000   0.000000   0.000000
    43  H   -0.000012  -0.002345   0.000000   0.000000   0.000000   0.000000
    44  H    0.000004   0.002398   0.000000   0.000000   0.000000   0.000000
    45  H    0.000009   0.002390   0.000000   0.000000   0.000000   0.000000
    46  H   -0.000017  -0.002576   0.000000   0.000000   0.000000   0.000000
    47  H   -0.000037   0.003406   0.000000   0.000000   0.000000   0.000000
    48  H    0.000000   0.000000   0.258681   0.000000   0.000000   0.000000
    49  H    0.000000   0.000000   0.328273   0.000000   0.000000   0.000000
    50  H    0.000000   0.000000   0.000000   0.000000   0.000000   0.000000
              13         14         15         16         17         18
     1  F   -0.065424   0.000103   0.000000   0.005896  -0.000054  -0.059016
     2  F   -0.000229  -0.000005  -0.002173  -0.000030   0.001933  -0.064811
     3  O    0.003301   0.000000   0.000000   0.000000   0.000000  -0.000003
     4  O   -0.000002   0.000000   0.000000   0.000000   0.000000   0.000000
     5  O    0.000001   0.000000   0.000000   0.000000   0.000000   0.000000
     6  N    0.186872   0.000000   0.000000   0.000001   0.000000   0.004173
     7  N    0.004865  -0.056553  -0.052327   0.272681   0.265848   0.311968
     8  N    0.000000   0.289385   0.288909  -0.065574  -0.068932  -0.000130
     9  N    0.004878   0.000000   0.000000   0.000000   0.000000   0.005642
    10  C   -0.056143   0.000000   0.000000  -0.000004   0.000000   0.000596
    11  C   -0.001148   0.000000   0.000000  -0.000011   0.000000  -0.000079
    12  C    0.002168   0.000000   0.000000   0.000000   0.000000   0.000009
    13  C    5.491709   0.000012   0.000001   0.000491  -0.000067  -0.035021
    14  C    0.000012   5.379920  -0.080476   0.187338  -0.005453   0.001684
    15  C    0.000001  -0.080476   5.384769  -0.001971   0.199540   0.001018
    16  C    0.000491   0.187338  -0.001971   5.365423  -0.076052  -0.061210
    17  C   -0.000067  -0.005453   0.199540  -0.076052   5.359478  -0.055071
    18  C   -0.035021   0.001684   0.001018  -0.061210  -0.055071   5.642099
    19  C   -0.074742   0.000000   0.000000   0.000000   0.000000  -0.000140
    20  C    0.147175   0.000000   0.000000  -0.000013  -0.000004  -0.059958
    21  C    0.117539   0.000292  -0.000134  -0.002088   0.000261   0.089121
    22  C    0.001713   0.000000  -0.000025  -0.000077   0.000232  -0.031366
    23  C   -0.011533   0.000000   0.000000   0.000000   0.000000   0.000032
    24  C   -0.058553   0.000163   0.000082   0.001352   0.000110   0.029440
    25  C   -0.001507   0.000000   0.000000   0.000000   0.000000  -0.001154
    26  C    0.000000   0.268476   0.004408  -0.079657  -0.000118  -0.000044
    27  C    0.000000   0.004474   0.266355  -0.000164  -0.079332  -0.000017
    28  C   -0.000465   0.000000   0.000000   0.000000   0.000000   0.000000
    29  H   -0.000414   0.000000   0.000000   0.000001   0.000000   0.000056
    30  H   -0.000029   0.000000   0.000000   0.000000   0.000000   0.000003
    31  H    0.001579   0.000000   0.000000   0.000000   0.000000  -0.000003
    32  H   -0.000045   0.000000   0.000000   0.000000   0.000000   0.000000
    33  H   -0.000031   0.000000   0.000000   0.000000   0.000000   0.000000
    34  H   -0.000002   0.360539  -0.003552  -0.065705  -0.001036   0.000872
    35  H    0.000000  -0.003579   0.350237  -0.001086  -0.063554  -0.000141
    36  H   -0.000233  -0.030189   0.000096   0.347028   0.003326  -0.005208
    37  H   -0.000015  -0.064815  -0.000996   0.343031  -0.001922   0.000877
    38  H   -0.000002  -0.000577  -0.068095  -0.004327   0.342740   0.001797
    39  H    0.000009   0.000171  -0.028493   0.003075   0.345151  -0.008302
    40  H    0.002919   0.000000   0.000000   0.000000   0.000000   0.000000
    41  H    0.000000  -0.055786  -0.054055  -0.001749  -0.001467  -0.000002
    42  H    0.000000  -0.034071  -0.000019   0.004659   0.000011   0.000000
    43  H    0.000000  -0.043423  -0.000031  -0.005120  -0.000019   0.000000
    44  H    0.000000  -0.041150  -0.000107   0.001808   0.000012   0.000001
    45  H    0.000000  -0.000109  -0.041858   0.000012   0.001474   0.000002
    46  H    0.000000  -0.000025  -0.044302  -0.000019  -0.004933   0.000000
    47  H    0.000000  -0.000021  -0.033347   0.000010   0.004616   0.000001
    48  H   -0.000094   0.000000   0.000000   0.000000   0.000000  -0.000058
    49  H   -0.000075   0.000000   0.000001   0.000000  -0.000001   0.000989
    50  H    0.000000   0.000000   0.000000   0.000000   0.000000   0.000000
              19         20         21         22         23         24
     1  F   -0.000037   0.002389   0.292043  -0.000243   0.000000   0.002546
     2  F    0.000000   0.002750   0.002185  -0.064834   0.000000   0.304887
     3  O    0.003577  -0.108064   0.000007  -0.004058  -0.107585   0.000179
     4  O    0.002859   0.000090   0.000000   0.000000  -0.096200   0.000000
     5  O    0.002922  -0.000013   0.000000   0.000000  -0.113513   0.000000
     6  N    0.249325  -0.023137  -0.059638   0.005622  -0.019847  -0.000498
     7  N    0.000000  -0.000468  -0.079128   0.004790   0.000000  -0.082512
     8  N    0.000000   0.000000  -0.000007   0.000000   0.000000   0.000021
     9  N   -0.000001  -0.056261  -0.000507   0.295242  -0.000258  -0.089112
    10  C   -0.069810   0.001462   0.003056  -0.000062   0.002712  -0.000019
    11  C    0.004544   0.000246  -0.000182   0.000001  -0.000240  -0.000001
    12  C   -0.013069  -0.000099   0.000643   0.000000   0.000760   0.000000
    13  C   -0.074742   0.147175   0.117539   0.001713  -0.011533  -0.058553
    14  C    0.000000   0.000000   0.000292   0.000000   0.000000   0.000163
[...]
    48  H    0.001359   0.000000   0.000000   0.000027   0.000000   0.000000
    49  H    0.000394   0.000000   0.000000   0.000000   0.000000   0.000000
    50  H   -0.000059   0.000000   0.000000  -0.028921   0.000000   0.000000
              31         32         33         34         35         36
     1  F   -0.000304  -0.000003  -0.000001   0.000001   0.000000   0.024379
     2  F    0.000000   0.000000   0.000000  -0.000017   0.017909   0.000000
     3  O    0.000000   0.000000   0.000000   0.000000   0.000000   0.000000
     4  O    0.000000   0.000000   0.000000   0.000000   0.000000   0.000000
     5  O    0.000000  -0.000006   0.000000   0.000000   0.000000   0.000000
     6  N   -0.001657  -0.002565   0.001050   0.000000   0.000000   0.000005
     7  N    0.000000   0.000000   0.000000   0.000491   0.001247  -0.027140
     8  N    0.000000   0.000000   0.000000  -0.041508  -0.036624   0.002283
     9  N    0.000000   0.000000   0.000000   0.000000   0.000001   0.000000
    10  C   -0.027700  -0.025650  -0.024996   0.000000   0.000000  -0.000013
    11  C    0.378585  -0.021400  -0.023556   0.000000   0.000000   0.000355
    12  C   -0.025844   0.371445   0.377913   0.000000   0.000000   0.000001
    13  C    0.002304  -0.000027  -0.000032  -0.000009   0.000000   0.000021
    14  C    0.000000   0.000000   0.000000   0.365814  -0.002419  -0.032239
    15  C    0.000000   0.000000   0.000000  -0.002238   0.342683   0.000027
    16  C    0.000002   0.000000   0.000000  -0.065113  -0.000806   0.324172
    17  C    0.000000   0.000000   0.000000  -0.000936  -0.064950   0.002724
    18  C   -0.000011   0.000000   0.000000   0.002753  -0.000099  -0.007801
    19  C    0.000205   0.003255   0.000104   0.000000   0.000000   0.000000
    20  C   -0.000078   0.000004   0.000000   0.000000  -0.000003  -0.000020
    21  C    0.000249  -0.000027  -0.000002   0.000040   0.000009  -0.002538
    22  C    0.000001   0.000000   0.000000   0.000001   0.000185   0.000015
    23  C   -0.000001  -0.000069  -0.000004   0.000000   0.000000   0.000000
    24  C   -0.000001   0.000000   0.000000  -0.000135  -0.000236  -0.000019
    25  C   -0.000003  -0.000005   0.000000   0.000000   0.000000   0.000000
    26  C    0.000000   0.000000   0.000000  -0.031256   0.000090   0.001786
    27  C    0.000000   0.000000   0.000000   0.000078  -0.027431   0.000005
    28  C    0.000000   0.000015   0.000000   0.000000   0.000000   0.000000
    29  H    0.001575   0.001260  -0.002179   0.000000   0.000000  -0.000004
    30  H   -0.016948   0.001198  -0.002940   0.000000   0.000000   0.000158
    31  H    0.465603  -0.003509   0.001320   0.000000   0.000000   0.000015
    32  H   -0.003509   0.463676  -0.017257   0.000000   0.000000   0.000000
    33  H    0.001320  -0.017257   0.469436   0.000000   0.000000   0.000000
    34  H    0.000000   0.000000   0.000000   0.549638   0.005238   0.000654
    35  H    0.000000   0.000000   0.000000   0.005238   0.543003   0.000055
    36  H    0.000015   0.000000   0.000000   0.000654   0.000055   0.514674
    37  H    0.000000   0.000000   0.000000   0.004403   0.000146  -0.018399
    38  H    0.000000   0.000000   0.000000   0.000126   0.004771   0.000187
    39  H    0.000000   0.000000   0.000000   0.000046  -0.000781  -0.000034
    40  H    0.000026   0.001196   0.000028   0.000000   0.000000   0.000000
    41  H    0.000000   0.000000   0.000000   0.005222   0.004764   0.000012
    42  H    0.000000   0.000000   0.000000  -0.003850  -0.000030  -0.000139
    43  H    0.000000   0.000000   0.000000   0.003781   0.000006   0.000092
    44  H    0.000000   0.000000   0.000000  -0.002447  -0.000001   0.001546
    45  H    0.000000   0.000000   0.000000   0.000000  -0.002135   0.000000
    46  H    0.000000   0.000000   0.000000   0.000006   0.003581   0.000000
    47  H    0.000000   0.000000   0.000000  -0.000030  -0.003913   0.000000
    48  H    0.000000   0.000000   0.000000   0.000000   0.000000   0.000000
    49  H    0.000000   0.000000   0.000000   0.000000  -0.000009   0.000000
    50  H    0.000000   0.000000   0.000000   0.000000   0.000000   0.000000
              37         38         39         40         41         42
     1  F   -0.000087  -0.000001   0.000000   0.000000   0.000000   0.000000
     2  F    0.000000   0.000193   0.013024   0.000000   0.000000   0.000000
     3  O    0.000000   0.000000   0.000000  -0.000003   0.000000   0.000000
     4  O    0.000000   0.000000   0.000000   0.000279   0.000000   0.000000
     5  O    0.000000   0.000000   0.000000   0.022827   0.000000   0.000000
     6  N    0.000000   0.000000   0.000000  -0.032917   0.000000   0.000000
     7  N   -0.039306  -0.041813  -0.026477   0.000000  -0.000170  -0.000040
     8  N    0.000490   0.000561   0.002537   0.000000   0.310779   0.004799
     9  N    0.000000   0.000000   0.000002   0.000000   0.000000   0.000000
    10  C    0.000000   0.000000   0.000000  -0.001165   0.000000   0.000000
    11  C    0.000000   0.000000   0.000000  -0.000225   0.000000   0.000000
    12  C    0.000000   0.000000   0.000000   0.001404   0.000000   0.000000
    13  C   -0.000009  -0.000001   0.000005   0.002921   0.000000   0.000000
    14  C   -0.061831  -0.000647   0.000111   0.000000  -0.055584  -0.034290
    15  C   -0.000984  -0.061902  -0.032586   0.000000  -0.053988  -0.000015
    16  C    0.347947  -0.004131   0.002792   0.000000  -0.001546   0.004598
    17  C   -0.002442   0.346268   0.341730   0.000000  -0.001203   0.000014
    18  C    0.002818   0.002945  -0.006074   0.000000   0.000012   0.000000
    19  C    0.000000   0.000000   0.000000   0.363070   0.000000   0.000000
    20  C    0.000000   0.000000  -0.000016  -0.000457   0.000000   0.000000
    21  C    0.000226   0.000051   0.000147  -0.000062   0.000000   0.000000
    22  C    0.000001   0.000010   0.000056  -0.000001   0.000000   0.000000
    23  C    0.000000   0.000000   0.000000  -0.059219   0.000000   0.000000
    24  C   -0.000139   0.000323  -0.000792   0.000000  -0.000002   0.000000
    25  C    0.000000   0.000000   0.000000   0.003030   0.000000   0.000000
    26  C    0.001801   0.000026   0.000004   0.000000  -0.003568   0.357150
    27  C    0.000038   0.001662   0.000903   0.000000  -0.003754  -0.000008
    28  C    0.000000   0.000000   0.000000   0.000814   0.000000   0.000000
    29  H    0.000000   0.000000   0.000000   0.000192   0.000000   0.000000
    30  H    0.000000   0.000000   0.000000   0.000001   0.000000   0.000000
    31  H    0.000000   0.000000   0.000000   0.000026   0.000000   0.000000
    32  H    0.000000   0.000000   0.000000   0.001196   0.000000   0.000000
    33  H    0.000000   0.000000   0.000000   0.000028   0.000000   0.000000
    34  H    0.004403   0.000126   0.000046   0.000000   0.005222  -0.003850
    35  H    0.000146   0.004771  -0.000781   0.000000   0.004764  -0.000030
    36  H   -0.018399   0.000187  -0.000034   0.000000   0.000012  -0.000139
    37  H    0.561236   0.006849   0.000091   0.000000   0.003724  -0.000196
    38  H    0.006849   0.567008  -0.020189   0.000000   0.003291  -0.000002
    39  H    0.000091  -0.020189   0.509994   0.000000  -0.000014   0.000000
    40  H    0.000000   0.000000   0.000000   0.432018   0.000000   0.000000
    41  H    0.003724   0.003291  -0.000014   0.000000   0.528748  -0.000426
    42  H   -0.000196  -0.000002   0.000000   0.000000  -0.000426   0.510258
    43  H    0.005080   0.000008   0.000000   0.000000   0.004689  -0.028181
    44  H   -0.000199   0.000000   0.000000   0.000000   0.000001  -0.022435
    45  H    0.000000  -0.000127   0.001676   0.000000  -0.000001   0.000000
    46  H    0.000011   0.004965   0.000042   0.000000   0.004772   0.000000
    47  H   -0.000002  -0.000189  -0.000131   0.000000  -0.000393   0.000005
    48  H    0.000000   0.000000   0.000000   0.000000   0.000000   0.000000
    49  H    0.000000   0.000000   0.000002   0.000000   0.000000   0.000000
    50  H    0.000000   0.000000   0.000000  -0.000015   0.000000   0.000000
              43         44         45         46         47         48
     1  F    0.000000  -0.000001   0.000000   0.000000   0.000000   0.000000
     2  F    0.000000   0.000000   0.000068  -0.000001  -0.000001   0.000018
     3  O    0.000000   0.000000   0.000000   0.000000   0.000000   0.080536
     4  O    0.000000   0.000000   0.000000   0.000000   0.000000   0.000004
     5  O    0.000000   0.000000   0.000000   0.000000   0.000000   0.000000
     6  N    0.000000   0.000000   0.000000   0.000000   0.000000   0.000001
     7  N   -0.000003  -0.000006  -0.000005  -0.000003  -0.000039   0.000000
     8  N   -0.001819   0.002342   0.002325  -0.001856   0.004577   0.000000
     9  N    0.000000   0.000000   0.000000   0.000000   0.000000   0.260272
    10  C    0.000000   0.000000   0.000000   0.000000   0.000000   0.000000
    11  C    0.000000   0.000000   0.000000   0.000000   0.000000   0.000000
    12  C    0.000000   0.000000   0.000000   0.000000   0.000000   0.000000
    13  C    0.000000   0.000000   0.000000   0.000000   0.000000  -0.000115
    14  C   -0.043962  -0.039941  -0.000097  -0.000038  -0.000014   0.000000
    15  C   -0.000037  -0.000097  -0.039747  -0.044468  -0.034198   0.000000
    16  C   -0.005881   0.002179   0.000009  -0.000018   0.000014   0.000000
    17  C   -0.000018   0.000010   0.001563  -0.005719   0.004655   0.000000
    18  C    0.000002   0.000003   0.000000   0.000002   0.000000  -0.000058
    19  C    0.000000   0.000000   0.000000   0.000000   0.000000  -0.000064
    20  C    0.000000   0.000000   0.000000   0.000000   0.000000  -0.018301
    21  C    0.000000  -0.000002   0.000000   0.000000   0.000000   0.000008
    22  C    0.000000   0.000000   0.000000   0.000000   0.000000  -0.026901
    23  C    0.000000   0.000000   0.000000   0.000000   0.000000   0.002163
    24  C    0.000000   0.000000  -0.000003   0.000000   0.000000   0.004405
    25  C    0.000000   0.000000   0.000000   0.000000   0.000000   0.001359
    26  C    0.363155   0.360001   0.000001   0.000002  -0.000009   0.000000
    27  C    0.000002   0.000001   0.361252   0.362590   0.356921   0.000000
    28  C    0.000000   0.000000   0.000000   0.000000   0.000000   0.000027
    29  H    0.000000   0.000000   0.000000   0.000000   0.000000   0.000000
    30  H    0.000000   0.000000   0.000000   0.000000   0.000000   0.000000
    31  H    0.000000   0.000000   0.000000   0.000000   0.000000   0.000000
    32  H    0.000000   0.000000   0.000000   0.000000   0.000000   0.000000
    33  H    0.000000   0.000000   0.000000   0.000000   0.000000   0.000000
    34  H    0.003781  -0.002447   0.000000   0.000006  -0.000030   0.000000
    35  H    0.000006  -0.000001  -0.002135   0.003581  -0.003913   0.000000
    36  H    0.000092   0.001546   0.000000   0.000000   0.000000   0.000000
    37  H    0.005080  -0.000199   0.000000   0.000011  -0.000002   0.000000
    38  H    0.000008   0.000000  -0.000127   0.004965  -0.000189   0.000000
    39  H    0.000000   0.000000   0.001676   0.000042  -0.000131   0.000000
    40  H    0.000000   0.000000   0.000000   0.000000   0.000000   0.000000
    41  H    0.004689   0.000001  -0.000001   0.004772  -0.000393   0.000000
    42  H   -0.028181  -0.022435   0.000000   0.000000   0.000005   0.000000
    43  H    0.551966  -0.028136   0.000000   0.000000   0.000000   0.000000
    44  H   -0.028136   0.539833   0.000000   0.000000   0.000000   0.000000
    45  H    0.000000   0.000000   0.534101  -0.028161  -0.022387   0.000000
    46  H    0.000000   0.000000  -0.028161   0.556289  -0.028540   0.000000
    47  H    0.000000   0.000000  -0.022387  -0.028540   0.513092   0.000000
    48  H    0.000000   0.000000   0.000000   0.000000   0.000000   0.353318
    49  H    0.000000   0.000000   0.000000   0.000000   0.000000  -0.008703
    50  H    0.000000   0.000000   0.000000   0.000000   0.000000   0.000000
              49         50
     1  F    0.000000   0.000000
     2  F    0.013367   0.000000
     3  O    0.000479   0.000253
     4  O    0.000000   0.236344
     5  O    0.000000   0.004637
     6  N    0.000000   0.000000
     7  N    0.000001   0.000000
     8  N    0.000000   0.000000
     9  N    0.329099   0.000000
    10  C    0.000000   0.000000
    11  C    0.000000   0.000000
    12  C    0.000000   0.000000
    13  C   -0.000075   0.000000
    14  C    0.000000   0.000000
    15  C    0.000002   0.000000
    16  C    0.000000   0.000000
    17  C   -0.000002   0.000000
    18  C    0.001104   0.000000
    19  C    0.000000  -0.000285
    20  C    0.003388   0.000005
    21  C   -0.000040   0.000000
    22  C   -0.053246   0.000000
    23  C    0.000008   0.012039
    24  C    0.001124   0.000000
    25  C    0.000394  -0.000059
    26  C    0.000000   0.000000
    27  C    0.000000   0.000000
    28  C    0.000000  -0.028921
    29  H    0.000000   0.000000
    30  H    0.000000   0.000000
    31  H    0.000000   0.000000
    32  H    0.000000   0.000000
    33  H    0.000000   0.000000
    34  H    0.000000   0.000000
    35  H   -0.000009   0.000000
    36  H    0.000000   0.000000
    37  H    0.000000   0.000000
    38  H    0.000000   0.000000
    39  H    0.000002   0.000000
    40  H    0.000000  -0.000015
    41  H    0.000000   0.000000
    42  H    0.000000   0.000000
    43  H    0.000000   0.000000
    44  H    0.000000   0.000000
    45  H    0.000000   0.000000
    46  H    0.000000   0.000000
    47  H    0.000000   0.000000
    48  H   -0.008703   0.000000
    49  H    0.405457   0.000000
    50  H    0.000000   0.418224
 Mulliken charges:
               1
     1  F   -0.287324
     2  F   -0.294186
     3  O   -0.533517
     4  O   -0.541234
     5  O   -0.519411
     6  N   -0.841783
     7  N   -0.671325
     8  N   -0.539713
     9  N   -0.864282
    10  C   -0.047766
    11  C   -0.373397
    12  C   -0.406346
    13  C    0.339415
    14  C   -0.079489
    15  C   -0.089981
    16  C   -0.210621
    17  C   -0.188071
    18  C    0.297857
    19  C    0.223550
    20  C   -0.082556
    21  C    0.263409
    22  C    0.346841
    23  C   -0.204584
    24  C    0.257901
    25  C    0.424146
    26  C   -0.548369
    27  C   -0.551416
    28  C    0.663784
    29  H    0.237100
    30  H    0.216470
    31  H    0.226171
    32  H    0.228467
    33  H    0.221113
    34  H    0.209245
    35  H    0.215750
    36  H    0.215183
    37  H    0.188733
    38  H    0.189758
    39  H    0.213932
    40  H    0.266259
    41  H    0.254635
    42  H    0.212789
    43  H    0.179258
    44  H    0.187348
    45  H    0.191667
    46  H    0.176545
    47  H    0.210582
    48  H    0.352032
    49  H    0.307651
    50  H    0.357779
 Sum of Mulliken charges =   0.00000
 Mulliken charges with hydrogens summed into heavy atoms:
               1
     1  F   -0.287324
     2  F   -0.294186
     3  O   -0.533517
     4  O   -0.183455
     5  O   -0.519411
     6  N   -0.841783
     7  N   -0.671325
     8  N   -0.285078
     9  N   -0.204599
    10  C    0.189334
    11  C    0.069244
    12  C    0.043234
    13  C    0.339415
    14  C    0.129756
    15  C    0.125769
    16  C    0.193296
    17  C    0.215620
    18  C    0.297857
    19  C    0.489809
    20  C   -0.082556
    21  C    0.263409
    22  C    0.346841
    23  C   -0.204584
    24  C    0.257901
    25  C    0.424146
    26  C    0.031026
    27  C    0.027377
    28  C    0.663784
 Electronic spatial extent (au):  <R**2>=          12313.9746
 Charge=              0.0000 electrons
 Dipole moment (field-independent basis, Debye):
    X=              3.4985    Y=              3.2493    Z=             -0.8119  Tot=              4.8432
 Quadrupole moment (field-independent basis, Debye-Ang):
   XX=           -167.0775   YY=           -150.0353   ZZ=           -164.2183
   XY=             -3.8601   XZ=             -6.0480   YZ=              0.7976
 Traceless Quadrupole moment (field-independent basis, Debye-Ang):
   XX=             -6.6338   YY=             10.4084   ZZ=             -3.7746
   XY=             -3.8601   XZ=             -6.0480   YZ=              0.7976
 Octapole moment (field-independent basis, Debye-Ang**2):
  XXX=             30.7091  YYY=             -2.2437  ZZZ=             -0.7246  XYY=              4.9060
  XXY=            -16.5314  XXZ=            -30.5702  XZZ=            -12.3007  YZZ=             -3.5711
  YYZ=             -4.2235  XYZ=              4.8470
 Hexadecapole moment (field-independent basis, Debye-Ang**3):
 XXXX=         -11417.1666 YYYY=          -3351.9848 ZZZZ=           -561.2779 XXXY=            544.8661
 XXXZ=           -360.9515 YYYX=           -113.1500 YYYZ=            -91.4934 ZZZX=            -20.3918
 ZZZY=            -32.5330 XXYY=          -2472.7177 XXZZ=          -2045.3426 YYZZ=           -697.8812
 XXYZ=             -2.3764 YYXZ=             25.7579 ZZXY=              8.9320
 N-N= 2.766274706284D+03 E-N=-8.741057002221D+03  KE= 1.362759536568D+03
 1\1\GINC-NODE036\FOpt\RB3LYP\3-21G\C19H22F2N4O3\SUPERCOMPUTO1\06-Jul-2
 020\0\\# opt b3lyp/3-21g geom=connectivity\\Title Card Required\\0,1\F
 ,8.2698167755,-7.1762775876,-5.1844928778\F,9.2719011763,-2.5291840649
 ,-5.8831941244\O,4.2436044887,-2.7818033606,-6.3447541985\O,1.75951323
 46,-3.7830658891,-6.3108845345\O,1.5257683369,-6.0401142459,-6.0908913
 075\N,5.5398862122,-6.6763284111,-5.7812892993\N,10.1622309191,-5.1855
 277299,-5.2701706135\N,12.6487164982,-4.8067767771,-6.702921173\N,6.68
 48229155,-1.9615451526,-6.1864979573\C,5.9225526517,-8.0929689211,-5.7
 320342292\C,6.6439761783,-8.6860872118,-6.9194953808\C,5.1929483109,-9
 .0682587245,-6.6451001927\C,6.501173626,-5.6393219401,-5.7552848799\C,
 11.6782675459,-5.8590574505,-7.1131272799\C,12.0191456001,-3.673723270
 7,-5.9685704226\C,10.8234316534,-6.3468831536,-5.9194154491\C,11.13821
 39067,-4.1743508667,-4.7979224482\C,8.8329913832,-4.8794349492,-5.5288
 444078\C,4.2239733597,-6.3655173477,-5.8908989766\C,6.0558713359,-4.30
 34446476,-5.9616443523\C,7.8449998056,-5.8894347284,-5.4986033211\C,7.
 024371798,-3.2544252417,-5.9741766943\C,3.729789941,-5.1046322983,-6.0
 534635409\C,8.3701338357,-3.5914559785,-5.7886588395\C,4.6348288761,-3
 .9655551723,-6.1419241095\C,12.4420146681,-7.0208359091,-7.7645045608\
 C,13.1162222645,-2.719878964,-5.4776706583\C,2.2645507872,-5.048001221
 ,-6.1490465523\H,6.2159737269,-8.4363435249,-4.7496646942\H,7.42824710
 67,-9.4016716495,-6.7095607195\H,6.8233182721,-8.0255510607,-7.7587271
 047\H,4.447662638,-8.6745294939,-7.3243161263\H,4.9795666467,-10.05003
 19695,-6.2411521329\H,11.0022691686,-5.4002585989,-7.8453557446\H,11.3
 530618696,-3.1549446569,-6.6632547589\H,10.0702616162,-7.0676273617,-6
 .2272901669\H,11.4853750782,-6.8236387093,-5.1817584669\H,11.781271316
 9,-4.6650458978,-4.0529519179\H,10.6095083228,-3.3487492243,-4.3259868
 497\H,3.5234461925,-7.1888779921,-5.855934919\H,13.3911386016,-5.22708
 93342,-6.1241506478\H,13.0733848349,-6.6341329011,-8.5692105135\H,13.0
 848285594,-7.5152193798,-7.0245250614\H,11.7504863532,-7.7656007314,-8
 .1726435794\H,12.6802745316,-1.8221330015,-5.0268200706\H,13.743792586
 2,-3.2151424491,-4.7250761492\H,13.7497046356,-2.428549403,-6.32019790
 68\H,5.6828564901,-1.7850347013,-6.3325683738\H,7.4096938475,-1.256512
 0017,-6.1886692612\H,0.7671595196,-3.872424742,-6.3617024529\\Version=
 ES64L-G09RevD.01\State=1-A\HF=-1374.0509368\RMSD=6.043e-09\RMSF=1.133e
 -05\Dipole=1.4804095,-1.1819633,0.2053214\Quadrupole=-5.2909106,7.8586
 21,-2.5677104,1.3503275,4.5845898,1.9580742\PG=C01 [X(C19H22F2N4O3)]\\
 @


 ASKING DUMB QUESTIONS IS EASIER THAN CORECTING DUMB MISTAKES.
 Job cpu time:       0 days  1 hours 43 minutes  9.0 seconds.
 File lengths (MBytes):  RWF=     58 Int=      0 D2E=      0 Chk=      9 Scr=      1
 Normal termination of Gaussian 09 at Mon Jul  6 12:13:27 2020.
