 Entering Gaussian System, Link 0=g09
 Input=enoxacina.gjf
 Output=enoxacina.log
 Initial command:
 /usr/local/cluster_programs/g09/l1.exe "/tmp/scratch/63927.prometeo/Gau-7470.inp" -scrdir="/tmp/scratch/63927.prometeo/"
 Entering Link 1 = /usr/local/cluster_programs/g09/l1.exe PID=      7471.
  
 Copyright (c) 1988,1990,1992,1993,1995,1998,2003,2009,2013,
            Gaussian, Inc.  All Rights Reserved.
  
 This is part of the Gaussian(R) 09 program.  It is based on
 the Gaussian(R) 03 system (copyright 2003, Gaussian, Inc.),
 the Gaussian(R) 98 system (copyright 1998, Gaussian, Inc.),
 the Gaussian(R) 94 system (copyright 1995, Gaussian, Inc.),
 the Gaussian 92(TM) system (copyright 1992, Gaussian, Inc.),
 the Gaussian 90(TM) system (copyright 1990, Gaussian, Inc.),
 the Gaussian 88(TM) system (copyright 1988, Gaussian, Inc.),
 the Gaussian 86(TM) system (copyright 1986, Carnegie Mellon
 University), and the Gaussian 82(TM) system (copyright 1983,
 Carnegie Mellon University). Gaussian is a federally registered
 trademark of Gaussian, Inc.
  
 This software contains proprietary and confidential information,
 including trade secrets, belonging to Gaussian, Inc.
  
 This software is provided under written license and may be
 used, copied, transmitted, or stored only in accord with that
 written license.
  
 The following legend is applicable only to US Government
 contracts under FAR:
  
                    RESTRICTED RIGHTS LEGEND
  
 Use, reproduction and disclosure by the US Government is
 subject to restrictions as set forth in subparagraphs (a)
 and (c) of the Commercial Computer Software - Restricted
 Rights clause in FAR 52.227-19.
  
 Gaussian, Inc.
 340 Quinnipiac St., Bldg. 40, Wallingford CT 06492
  
  
 ---------------------------------------------------------------
 Warning -- This program may not be used in any manner that
 competes with the business of Gaussian, Inc. or will provide
 assistance to any competitor of Gaussian, Inc.  The licensee
 of this program is prohibited from giving any competitor of
 Gaussian, Inc. access to this program.  By using this program,
 the user acknowledges that Gaussian, Inc. is engaged in the
 business of creating and licensing software in the field of
 computational chemistry and represents and warrants to the
 licensee that it is not a competitor of Gaussian, Inc. and that
 it will not use this program in any manner prohibited above.
 ---------------------------------------------------------------
  

 Cite this work as:
 Gaussian 09, Revision D.01,
 M. J. Frisch, G. W. Trucks, H. B. Schlegel, G. E. Scuseria, 
 M. A. Robb, J. R. Cheeseman, G. Scalmani, V. Barone, B. Mennucci, 
 G. A. Petersson, H. Nakatsuji, M. Caricato, X. Li, H. P. Hratchian, 
 A. F. Izmaylov, J. Bloino, G. Zheng, J. L. Sonnenberg, M. Hada, 
 M. Ehara, K. Toyota, R. Fukuda, J. Hasegawa, M. Ishida, T. Nakajima, 
 Y. Honda, O. Kitao, H. Nakai, T. Vreven, J. A. Montgomery, Jr., 
 J. E. Peralta, F. Ogliaro, M. Bearpark, J. J. Heyd, E. Brothers, 
 K. N. Kudin, V. N. Staroverov, T. Keith, R. Kobayashi, J. Normand, 
 K. Raghavachari, A. Rendell, J. C. Burant, S. S. Iyengar, J. Tomasi, 
 M. Cossi, N. Rega, J. M. Millam, M. Klene, J. E. Knox, J. B. Cross, 
 V. Bakken, C. Adamo, J. Jaramillo, R. Gomperts, R. E. Stratmann, 
 O. Yazyev, A. J. Austin, R. Cammi, C. Pomelli, J. W. Ochterski, 
 R. L. Martin, K. Morokuma, V. G. Zakrzewski, G. A. Voth, 
 P. Salvador, J. J. Dannenberg, S. Dapprich, A. D. Daniels, 
 O. Farkas, J. B. Foresman, J. V. Ortiz, J. Cioslowski, 
 and D. J. Fox, Gaussian, Inc., Wallingford CT, 2013.
 
 ******************************************
 Gaussian 09:  ES64L-G09RevD.01 24-Apr-2013
                 6-Jul-2020 
 ******************************************
 %nprocshared=20
 Will use up to   20 processors via shared memory.
 -----------------------------------
 # opt b3lyp/3-21g geom=connectivity
 -----------------------------------
 1/14=-1,18=20,19=15,26=3,38=1,57=2/1,3;
 2/9=110,12=2,17=6,18=5,40=1/2;
 3/5=5,11=2,16=1,25=1,30=1,71=1,74=-5/1,2,3;
 4//1;
 5/5=2,38=5/2;
 6/7=2,8=2,9=2,10=2,28=1/1;
 7//1,2,3,16;
 1/14=-1,18=20,19=15,26=3/3(2);
 2/9=110/2;
 99//99;
 2/9=110/2;
 3/5=5,11=2,16=1,25=1,30=1,71=1,74=-5/1,2,3;
 4/5=5,16=3,69=1/1;
 5/5=2,38=5/2;
 7//1,2,3,16;
 1/14=-1,18=20,19=15,26=3/3(-5);
 2/9=110/2;
 6/7=2,8=2,9=2,10=2,19=2,28=1/1;
 99/9=1/99;
 -------------------
 Title Card Required
 -------------------
 Symbolic Z-matrix:
 Charge =  0 Multiplicity = 1
 F(PDBName=F1,ResName=MOL,ResNum=1) 0    -9.925    -4.029     6.382    L 
 O(PDBName=O2,ResName=MOL,ResNum=1) 0    -4.897    -4.321     6.323    L 
 O(PDBName=O3,ResName=MOL,ResNum=1) 0    -2.456    -5.405     6.959    L 
 O(PDBName=O4,ResName=MOL,ResNum=1) 0    -2.261    -7.654     6.831    L 
 N(PDBName=N5,ResName=MOL,ResNum=1) 0    -10.819   -6.698     6.677    L 
 N(PDBName=N6,ResName=MOL,ResNum=1) 0    -13.531   -7.46      6.876    L 
 N(PDBName=N7,ResName=MOL,ResNum=1) 0    -6.364    -8.164     6.788    L 
 N(PDBName=N8,ResName=MOL,ResNum=1) 0    -8.574    -7.385     6.712    L 
 C(PDBName=C9,ResName=MOL,ResNum=1) 0    -11.219   -8.085     6.436    L 
 C(PDBName=C10,ResName=MOL,ResNum=1) 0    -11.739   -5.976     7.572    L 
 C(PDBName=C11,ResName=MOL,ResNum=1) 0    -12.652   -8.114     5.913    L 
 C(PDBName=C12,ResName=MOL,ResNum=1) 0    -13.17    -6.059     7.057    L 
 C(PDBName=C13,ResName=MOL,ResNum=1) 0    -9.476    -6.384     6.656    L 
 C(PDBName=C14,ResName=MOL,ResNum=1) 0    -7.263    -7.095     6.655    L 
 C(PDBName=C15,ResName=MOL,ResNum=1) 0    -6.743    -5.796     6.527    L 
 C(PDBName=C16,ResName=MOL,ResNum=1) 0    -9.015    -5.045     6.512    L 
 C(PDBName=C17,ResName=MOL,ResNum=1) 0    -7.683    -4.754     6.438    L 
 C(PDBName=C18,ResName=MOL,ResNum=1) 0    -6.858    -9.532     7.042    L 
 C(PDBName=C19,ResName=MOL,ResNum=1) 0    -5.298    -5.487     6.493    L 
 C(PDBName=C20,ResName=MOL,ResNum=1) 0    -5.031    -7.915     6.8      L 
 C(PDBName=C21,ResName=MOL,ResNum=1) 0    -4.451    -6.67      6.684    L 
 C(PDBName=C22,ResName=MOL,ResNum=1) 0    -7.122    -10.341    5.779    L 
 C(PDBName=C23,ResName=MOL,ResNum=1) 0    -2.981    -6.647     6.817    L 
 H(PDBName=H24,ResName=MOL,ResNum=1) 0    -11.151   -8.677     7.368    L 
 H(PDBName=H25,ResName=MOL,ResNum=1) 0    -10.527   -8.521     5.704    L 
 H(PDBName=H26,ResName=MOL,ResNum=1) 0    -11.431   -4.931     7.663    L 
 H(PDBName=H27,ResName=MOL,ResNum=1) 0    -11.696   -6.448     8.573    L 
 H(PDBName=H28,ResName=MOL,ResNum=1) 0    -12.672   -7.637     4.909    L 
 H(PDBName=H29,ResName=MOL,ResNum=1) 0    -12.967   -9.159     5.787    L 
 H(PDBName=H30,ResName=MOL,ResNum=1) 0    -13.833   -5.61      7.814    L 
 H(PDBName=H31,ResName=MOL,ResNum=1) 0    -13.253   -5.456     6.124    L 
 H(PDBName=H32,ResName=MOL,ResNum=1) 0    -14.526   -7.584     6.646    L 
 H(PDBName=H33,ResName=MOL,ResNum=1) 0    -7.331    -3.733     6.285    L 
 H(PDBName=H34,ResName=MOL,ResNum=1) 0    -6.104    -10.027    7.669    L 
 H(PDBName=H35,ResName=MOL,ResNum=1) 0    -7.777    -9.427     7.63     L 
 H(PDBName=H36,ResName=MOL,ResNum=1) 0    -4.389    -8.788     6.936    L 
 H(PDBName=H37,ResName=MOL,ResNum=1) 0    -7.878    -9.857     5.148    L 
 H(PDBName=H38,ResName=MOL,ResNum=1) 0    -6.206    -10.479    5.19     L 
 H(PDBName=H39,ResName=MOL,ResNum=1) 0    -7.494    -11.337    6.054    L 
 H(PDBName=H40,ResName=MOL,ResNum=1) 0    -1.487    -5.546     7.062    L 
 
 Center=     -8.50625000     -7.20582500      6.63727500
 Residue   1 PDB Number     1_0 MOL charge    0.00000000 layers R        AvRTP=      0.00000000    206.56505118     90.00000000

 GradGradGradGradGradGradGradGradGradGradGradGradGradGradGradGradGradGrad
 Berny optimization.
 Initialization pass.
                           ----------------------------
                           !    Initial Parameters    !
                           ! (Angstroms and Degrees)  !
 --------------------------                            --------------------------
 ! Name  Definition              Value          Derivative Info.                !
 --------------------------------------------------------------------------------
 ! R1    R(1,16)                 1.3701         estimate D2E/DX2                !
 ! R2    R(2,19)                 1.2447         estimate D2E/DX2                !
 ! R3    R(3,23)                 1.3559         estimate D2E/DX2                !
 ! R4    R(3,40)                 0.9846         estimate D2E/DX2                !
 ! R5    R(4,23)                 1.238          estimate D2E/DX2                !
 ! R6    R(5,9)                  1.4635         estimate D2E/DX2                !
 ! R7    R(5,10)                 1.4727         estimate D2E/DX2                !
 ! R8    R(5,13)                 1.3794         estimate D2E/DX2                !
 ! R9    R(6,11)                 1.4587         estimate D2E/DX2                !
 ! R10   R(6,12)                 1.458          estimate D2E/DX2                !
 ! R11   R(6,32)                 1.0287         estimate D2E/DX2                !
 ! R12   R(7,14)                 1.4031         estimate D2E/DX2                !
 ! R13   R(7,18)                 1.4765         estimate D2E/DX2                !
 ! R14   R(7,20)                 1.3561         estimate D2E/DX2                !
 ! R15   R(8,13)                 1.3486         estimate D2E/DX2                !
 ! R16   R(8,14)                 1.3439         estimate D2E/DX2                !
 ! R17   R(9,11)                 1.5257         estimate D2E/DX2                !
 ! R18   R(9,24)                 1.1062         estimate D2E/DX2                !
 ! R19   R(9,25)                 1.0976         estimate D2E/DX2                !
 ! R20   R(10,12)                1.5231         estimate D2E/DX2                !
 ! R21   R(10,26)                1.0932         estimate D2E/DX2                !
 ! R22   R(10,27)                1.1075         estimate D2E/DX2                !
 ! R23   R(11,28)                1.1117         estimate D2E/DX2                !
 ! R24   R(11,29)                1.0987         estimate D2E/DX2                !
 ! R25   R(12,30)                1.1019         estimate D2E/DX2                !
 ! R26   R(12,31)                1.114          estimate D2E/DX2                !
 ! R27   R(13,16)                1.4234         estimate D2E/DX2                !
 ! R28   R(14,15)                1.4051         estimate D2E/DX2                !
 ! R29   R(15,17)                1.4062         estimate D2E/DX2                !
 ! R30   R(15,19)                1.4781         estimate D2E/DX2                !
 ! R31   R(16,17)                1.3654         estimate D2E/DX2                !
 ! R32   R(17,33)                1.0908         estimate D2E/DX2                !
 ! R33   R(18,22)                1.5229         estimate D2E/DX2                !
 ! R34   R(18,34)                1.0985         estimate D2E/DX2                !
 ! R35   R(18,35)                1.0961         estimate D2E/DX2                !
 ! R36   R(19,21)                1.4674         estimate D2E/DX2                !
 ! R37   R(20,21)                1.3784         estimate D2E/DX2                !
 ! R38   R(20,36)                1.0921         estimate D2E/DX2                !
 ! R39   R(21,23)                1.4762         estimate D2E/DX2                !
 ! R40   R(22,37)                1.0972         estimate D2E/DX2                !
 ! R41   R(22,38)                1.0977         estimate D2E/DX2                !
 ! R42   R(22,39)                1.0982         estimate D2E/DX2                !
 ! A1    A(23,3,40)            105.1204         estimate D2E/DX2                !
 ! A2    A(9,5,10)             113.202          estimate D2E/DX2                !
 ! A3    A(9,5,13)             118.6423         estimate D2E/DX2                !
 ! A4    A(10,5,13)            120.3907         estimate D2E/DX2                !
 ! A5    A(11,6,12)            111.3195         estimate D2E/DX2                !
 ! A6    A(11,6,32)            112.4078         estimate D2E/DX2                !
 ! A7    A(12,6,32)            112.5226         estimate D2E/DX2                !
 ! A8    A(14,7,18)            120.5206         estimate D2E/DX2                !
 ! A9    A(14,7,20)            119.3903         estimate D2E/DX2                !
 ! A10   A(18,7,20)            119.8335         estimate D2E/DX2                !
 ! A11   A(13,8,14)            119.3756         estimate D2E/DX2                !
 ! A12   A(5,9,11)             109.3395         estimate D2E/DX2                !
 ! A13   A(5,9,24)             110.5878         estimate D2E/DX2                !
 ! A14   A(5,9,25)             108.2982         estimate D2E/DX2                !
 ! A15   A(11,9,24)            109.6555         estimate D2E/DX2                !
 ! A16   A(11,9,25)            110.8536         estimate D2E/DX2                !
 ! A17   A(24,9,25)            108.0915         estimate D2E/DX2                !
 ! A18   A(5,10,12)            110.777          estimate D2E/DX2                !
 ! A19   A(5,10,26)            110.0733         estimate D2E/DX2                !
 ! A20   A(5,10,27)            108.4267         estimate D2E/DX2                !
 ! A21   A(12,10,26)           110.1774         estimate D2E/DX2                !
 ! A22   A(12,10,27)           108.5935         estimate D2E/DX2                !
 ! A23   A(26,10,27)           108.7353         estimate D2E/DX2                !
 ! A24   A(6,11,9)             109.3387         estimate D2E/DX2                !
 ! A25   A(6,11,28)            113.1415         estimate D2E/DX2                !
 ! A26   A(6,11,29)            109.2314         estimate D2E/DX2                !
 ! A27   A(9,11,28)            108.5608         estimate D2E/DX2                !
 ! A28   A(9,11,29)            109.0667         estimate D2E/DX2                !
 ! A29   A(28,11,29)           107.4195         estimate D2E/DX2                !
 ! A30   A(6,12,10)            109.0841         estimate D2E/DX2                !
 ! A31   A(6,12,30)            109.1378         estimate D2E/DX2                !
 ! A32   A(6,12,31)            113.4346         estimate D2E/DX2                !
 ! A33   A(10,12,30)           108.1075         estimate D2E/DX2                !
 ! A34   A(10,12,31)           108.8862         estimate D2E/DX2                !
 ! A35   A(30,12,31)           108.0578         estimate D2E/DX2                !
 ! A36   A(5,13,8)             118.7901         estimate D2E/DX2                !
 ! A37   A(5,13,16)            122.0729         estimate D2E/DX2                !
 ! A38   A(8,13,16)            119.0653         estimate D2E/DX2                !
 ! A39   A(7,14,8)             117.1689         estimate D2E/DX2                !
 ! A40   A(7,14,15)            118.4172         estimate D2E/DX2                !
 ! A41   A(8,14,15)            124.3604         estimate D2E/DX2                !
 ! A42   A(14,15,17)           116.3246         estimate D2E/DX2                !
 ! A43   A(14,15,19)           123.8615         estimate D2E/DX2                !
 ! A44   A(17,15,19)           119.8124         estimate D2E/DX2                !
 ! A45   A(1,16,13)            119.4751         estimate D2E/DX2                !
 ! A46   A(1,16,17)            118.995          estimate D2E/DX2                !
 ! A47   A(13,16,17)           121.4596         estimate D2E/DX2                !
 ! A48   A(15,17,16)           119.3909         estimate D2E/DX2                !
 ! A49   A(15,17,33)           119.1294         estimate D2E/DX2                !
 ! A50   A(16,17,33)           121.4601         estimate D2E/DX2                !
 ! A51   A(7,18,22)            114.0487         estimate D2E/DX2                !
 ! A52   A(7,18,34)            106.6217         estimate D2E/DX2                !
 ! A53   A(7,18,35)            106.5029         estimate D2E/DX2                !
 ! A54   A(22,18,34)           110.6694         estimate D2E/DX2                !
 ! A55   A(22,18,35)           110.5146         estimate D2E/DX2                !
 ! A56   A(34,18,35)           108.2088         estimate D2E/DX2                !
 ! A57   A(2,19,15)            120.9269         estimate D2E/DX2                !
 ! A58   A(2,19,21)            125.946          estimate D2E/DX2                !
 ! A59   A(15,19,21)           113.1261         estimate D2E/DX2                !
 ! A60   A(7,20,21)            125.3607         estimate D2E/DX2                !
 ! A61   A(7,20,36)            115.6039         estimate D2E/DX2                !
 ! A62   A(21,20,36)           119.0209         estimate D2E/DX2                !
 ! A63   A(19,21,20)           119.7517         estimate D2E/DX2                !
 ! A64   A(19,21,23)           125.0257         estimate D2E/DX2                !
 ! A65   A(20,21,23)           115.1834         estimate D2E/DX2                !
 ! A66   A(18,22,37)           111.2254         estimate D2E/DX2                !
 ! A67   A(18,22,38)           111.5374         estimate D2E/DX2                !
 ! A68   A(18,22,39)           109.4405         estimate D2E/DX2                !
 ! A69   A(37,22,38)           108.7731         estimate D2E/DX2                !
 ! A70   A(37,22,39)           108.0998         estimate D2E/DX2                !
 ! A71   A(38,22,39)           107.6382         estimate D2E/DX2                !
 ! A72   A(3,23,4)             121.2467         estimate D2E/DX2                !
 ! A73   A(3,23,21)            114.1605         estimate D2E/DX2                !
 ! A74   A(4,23,21)            124.5755         estimate D2E/DX2                !
 ! D1    D(40,3,23,4)           -0.1903         estimate D2E/DX2                !
 ! D2    D(40,3,23,21)         178.3661         estimate D2E/DX2                !
 ! D3    D(10,5,9,11)           54.8273         estimate D2E/DX2                !
 ! D4    D(10,5,9,24)          -66.0122         estimate D2E/DX2                !
 ! D5    D(10,5,9,25)          175.7193         estimate D2E/DX2                !
 ! D6    D(13,5,9,11)         -155.7132         estimate D2E/DX2                !
 ! D7    D(13,5,9,24)           83.4473         estimate D2E/DX2                !
 ! D8    D(13,5,9,25)          -34.8212         estimate D2E/DX2                !
 ! D9    D(9,5,10,12)          -54.1026         estimate D2E/DX2                !
 ! D10   D(9,5,10,26)         -176.2041         estimate D2E/DX2                !
 ! D11   D(9,5,10,27)           64.9667         estimate D2E/DX2                !
 ! D12   D(13,5,10,12)         157.0288         estimate D2E/DX2                !
 ! D13   D(13,5,10,26)          34.9273         estimate D2E/DX2                !
 ! D14   D(13,5,10,27)         -83.9018         estimate D2E/DX2                !
 ! D15   D(9,5,13,8)           -14.4976         estimate D2E/DX2                !
 ! D16   D(9,5,13,16)          162.3914         estimate D2E/DX2                !
 ! D17   D(10,5,13,8)          132.7203         estimate D2E/DX2                !
 ! D18   D(10,5,13,16)         -50.3907         estimate D2E/DX2                !
 ! D19   D(12,6,11,9)           61.9196         estimate D2E/DX2                !
 ! D20   D(12,6,11,28)         -59.2021         estimate D2E/DX2                !
 ! D21   D(12,6,11,29)        -178.7993         estimate D2E/DX2                !
 ! D22   D(32,6,11,9)         -170.8018         estimate D2E/DX2                !
 ! D23   D(32,6,11,28)          68.0765         estimate D2E/DX2                !
 ! D24   D(32,6,11,29)         -51.5208         estimate D2E/DX2                !
 ! D25   D(11,6,12,10)         -60.2111         estimate D2E/DX2                !
 ! D26   D(11,6,12,30)        -178.127          estimate D2E/DX2                !
 ! D27   D(11,6,12,31)          61.3407         estimate D2E/DX2                !
 ! D28   D(32,6,12,10)         172.5728         estimate D2E/DX2                !
 ! D29   D(32,6,12,30)          54.6569         estimate D2E/DX2                !
 ! D30   D(32,6,12,31)         -65.8754         estimate D2E/DX2                !
 ! D31   D(18,7,14,8)           -2.7539         estimate D2E/DX2                !
 ! D32   D(18,7,14,15)         174.7044         estimate D2E/DX2                !
 ! D33   D(20,7,14,8)         -176.9365         estimate D2E/DX2                !
 ! D34   D(20,7,14,15)           0.5218         estimate D2E/DX2                !
 ! D35   D(14,7,18,22)          90.5891         estimate D2E/DX2                !
 ! D36   D(14,7,18,34)        -146.9586         estimate D2E/DX2                !
 ! D37   D(14,7,18,35)         -31.5823         estimate D2E/DX2                !
 ! D38   D(20,7,18,22)         -95.254          estimate D2E/DX2                !
 ! D39   D(20,7,18,34)          27.1983         estimate D2E/DX2                !
 ! D40   D(20,7,18,35)         142.5746         estimate D2E/DX2                !
 ! D41   D(14,7,20,21)          -0.3265         estimate D2E/DX2                !
 ! D42   D(14,7,20,36)         178.2667         estimate D2E/DX2                !
 ! D43   D(18,7,20,21)        -174.5497         estimate D2E/DX2                !
 ! D44   D(18,7,20,36)           4.0435         estimate D2E/DX2                !
 ! D45   D(14,8,13,5)          178.1702         estimate D2E/DX2                !
 ! D46   D(14,8,13,16)           1.1861         estimate D2E/DX2                !
 ! D47   D(13,8,14,7)          176.7264         estimate D2E/DX2                !
 ! D48   D(13,8,14,15)          -0.5655         estimate D2E/DX2                !
 ! D49   D(5,9,11,6)           -57.4833         estimate D2E/DX2                !
 ! D50   D(5,9,11,28)           66.3789         estimate D2E/DX2                !
 ! D51   D(5,9,11,29)         -176.8662         estimate D2E/DX2                !
 ! D52   D(24,9,11,6)           63.9219         estimate D2E/DX2                !
 ! D53   D(24,9,11,28)        -172.2159         estimate D2E/DX2                !
 ! D54   D(24,9,11,29)         -55.4609         estimate D2E/DX2                !
 ! D55   D(25,9,11,6)         -176.8081         estimate D2E/DX2                !
 ! D56   D(25,9,11,28)         -52.9459         estimate D2E/DX2                !
 ! D57   D(25,9,11,29)          63.8091         estimate D2E/DX2                !
 ! D58   D(5,10,12,6)           54.9177         estimate D2E/DX2                !
 ! D59   D(5,10,12,30)         173.48           estimate D2E/DX2                !
 ! D60   D(5,10,12,31)         -69.3551         estimate D2E/DX2                !
 ! D61   D(26,10,12,6)         176.9584         estimate D2E/DX2                !
 ! D62   D(26,10,12,30)        -64.4793         estimate D2E/DX2                !
 ! D63   D(26,10,12,31)         52.6855         estimate D2E/DX2                !
 ! D64   D(27,10,12,6)         -64.051          estimate D2E/DX2                !
 ! D65   D(27,10,12,30)         54.5113         estimate D2E/DX2                !
 ! D66   D(27,10,12,31)        171.6762         estimate D2E/DX2                !
 ! D67   D(5,13,16,1)           -0.3681         estimate D2E/DX2                !
 ! D68   D(5,13,16,17)        -177.2885         estimate D2E/DX2                !
 ! D69   D(8,13,16,1)          176.5127         estimate D2E/DX2                !
 ! D70   D(8,13,16,17)          -0.4077         estimate D2E/DX2                !
 ! D71   D(7,14,15,17)        -178.1029         estimate D2E/DX2                !
 ! D72   D(7,14,15,19)           1.4434         estimate D2E/DX2                !
 ! D73   D(8,14,15,17)          -0.8423         estimate D2E/DX2                !
 ! D74   D(8,14,15,19)         178.7039         estimate D2E/DX2                !
 ! D75   D(14,15,17,16)          1.5861         estimate D2E/DX2                !
 ! D76   D(14,15,17,33)       -176.8277         estimate D2E/DX2                !
 ! D77   D(19,15,17,16)       -177.9797         estimate D2E/DX2                !
 ! D78   D(19,15,17,33)          3.6066         estimate D2E/DX2                !
 ! D79   D(14,15,19,2)         177.0462         estimate D2E/DX2                !
 ! D80   D(14,15,19,21)         -3.297          estimate D2E/DX2                !
 ! D81   D(17,15,19,2)          -3.4225         estimate D2E/DX2                !
 ! D82   D(17,15,19,21)        176.2343         estimate D2E/DX2                !
 ! D83   D(1,16,17,15)        -177.9568         estimate D2E/DX2                !
 ! D84   D(1,16,17,33)           0.4187         estimate D2E/DX2                !
 ! D85   D(13,16,17,15)         -1.022          estimate D2E/DX2                !
 ! D86   D(13,16,17,33)        177.3535         estimate D2E/DX2                !
 ! D87   D(7,18,22,37)         -60.0768         estimate D2E/DX2                !
 ! D88   D(7,18,22,38)          61.5536         estimate D2E/DX2                !
 ! D89   D(7,18,22,39)        -179.451          estimate D2E/DX2                !
 ! D90   D(34,18,22,37)        179.7152         estimate D2E/DX2                !
 ! D91   D(34,18,22,38)        -58.6544         estimate D2E/DX2                !
 ! D92   D(34,18,22,39)         60.341          estimate D2E/DX2                !
 ! D93   D(35,18,22,37)         59.8638         estimate D2E/DX2                !
 ! D94   D(35,18,22,38)       -178.5058         estimate D2E/DX2                !
 ! D95   D(35,18,22,39)        -59.5104         estimate D2E/DX2                !
 ! D96   D(2,19,21,20)        -177.0033         estimate D2E/DX2                !
 ! D97   D(2,19,21,23)           5.3856         estimate D2E/DX2                !
 ! D98   D(15,19,21,20)          3.3603         estimate D2E/DX2                !
 ! D99   D(15,19,21,23)       -174.2508         estimate D2E/DX2                !
 ! D100  D(7,20,21,19)          -1.8034         estimate D2E/DX2                !
 ! D101  D(7,20,21,23)         176.0349         estimate D2E/DX2                !
 ! D102  D(36,20,21,19)        179.6474         estimate D2E/DX2                !
 ! D103  D(36,20,21,23)         -2.5142         estimate D2E/DX2                !
 ! D104  D(19,21,23,3)           9.8021         estimate D2E/DX2                !
 ! D105  D(19,21,23,4)        -171.6969         estimate D2E/DX2                !
 ! D106  D(20,21,23,3)        -167.9061         estimate D2E/DX2                !
 ! D107  D(20,21,23,4)          10.5949         estimate D2E/DX2                !
 --------------------------------------------------------------------------------
 Trust Radius=3.00D-01 FncErr=1.00D-07 GrdErr=1.00D-06
 Number of steps in this run=    233 maximum allowed number of steps=    240.
 GradGradGradGradGradGradGradGradGradGradGradGradGradGradGradGradGradGrad

                          Input orientation:                          
 ---------------------------------------------------------------------
 Center     Atomic      Atomic             Coordinates (Angstroms)
 Number     Number       Type             X           Y           Z
 ---------------------------------------------------------------------
      1          9           0       -9.925000   -4.029000    6.382000
      2          8           0       -4.897000   -4.321000    6.323000
      3          8           0       -2.456000   -5.405000    6.959000
      4          8           0       -2.261000   -7.654000    6.831000
      5          7           0      -10.819000   -6.698000    6.677000
      6          7           0      -13.531000   -7.460000    6.876000
      7          7           0       -6.364000   -8.164000    6.788000
      8          7           0       -8.574000   -7.385000    6.712000
      9          6           0      -11.219000   -8.085000    6.436000
     10          6           0      -11.739000   -5.976000    7.572000
     11          6           0      -12.652000   -8.114000    5.913000
     12          6           0      -13.170000   -6.059000    7.057000
     13          6           0       -9.476000   -6.384000    6.656000
     14          6           0       -7.263000   -7.095000    6.655000
     15          6           0       -6.743000   -5.796000    6.527000
     16          6           0       -9.015000   -5.045000    6.512000
     17          6           0       -7.683000   -4.754000    6.438000
     18          6           0       -6.858000   -9.532000    7.042000
     19          6           0       -5.298000   -5.487000    6.493000
     20          6           0       -5.031000   -7.915000    6.800000
     21          6           0       -4.451000   -6.670000    6.684000
     22          6           0       -7.122000  -10.341000    5.779000
     23          6           0       -2.981000   -6.647000    6.817000
     24          1           0      -11.151000   -8.677000    7.368000
     25          1           0      -10.527000   -8.521000    5.704000
     26          1           0      -11.431000   -4.931000    7.663000
     27          1           0      -11.696000   -6.448000    8.573000
     28          1           0      -12.672000   -7.637000    4.909000
     29          1           0      -12.967000   -9.159000    5.787000
     30          1           0      -13.833000   -5.610000    7.814000
     31          1           0      -13.253000   -5.456000    6.124000
     32          1           0      -14.526000   -7.584000    6.646000
     33          1           0       -7.331000   -3.733000    6.285000
     34          1           0       -6.104000  -10.027000    7.669000
     35          1           0       -7.777000   -9.427000    7.630000
     36          1           0       -4.389000   -8.788000    6.936000
     37          1           0       -7.878000   -9.857000    5.148000
     38          1           0       -6.206000  -10.479000    5.190000
     39          1           0       -7.494000  -11.337000    6.054000
     40          1           0       -1.487000   -5.546000    7.062000
 ---------------------------------------------------------------------
                    Distance matrix (angstroms):
                    1          2          3          4          5
     1  F    0.000000
     2  O    5.036817   0.000000
     3  O    7.616578   2.745548   0.000000
     4  O    8.489942   4.279655   2.261064   0.000000
     5  N    2.830163   6.391051   8.467062   8.612608   0.000000
     6  N    5.001903   9.203537  11.264348  11.271759   2.824038
     7  N    5.472091   4.139682   4.786835   4.134798   4.691322
     8  N    3.632745   4.802056   6.435164   6.319849   2.348024
     9  C    4.257756   7.358543   9.178567   8.977057   1.463506
    10  C    2.915048   7.149265   9.320724   9.653872   1.472654
    11  C    4.933935   8.642625  10.601472  10.441609   2.438984
    12  C    3.886715   8.485395  10.734389  11.027302   2.465750
    13  C    2.413028   5.033299   7.094410   7.328011   1.379379
    14  C    4.069537   3.661046   5.104485   5.036215   3.578160
    15  C    3.642587   2.371699   4.326416   4.861369   4.177305
    16  C    1.370130   4.185430   6.584063   7.247424   2.452356
    17  C    2.356974   2.821792   5.293087   6.161374   3.697398
    18  C    6.334437   5.614001   6.034619   4.970293   4.884087
    19  C    4.852547   1.244692   2.881119   3.746132   5.655247
    20  C    6.263143   3.627991   3.599445   2.782442   5.915840
    21  C    6.085291   2.418065   2.378208   2.405403   6.368065
    22  C    6.932659   6.441037   6.894059   5.652963   5.267415
    23  C    7.433861   3.053747   1.355859   1.238000   7.839416
    24  H    4.907054   7.692807   9.299263   8.964764   2.122297
    25  H    4.582592   7.051245   8.742169   8.387406   2.086941
    26  H    2.173155   6.697825   9.015038   9.601867   2.114008
    27  H    3.713285   7.470812   9.437714   9.669965   2.103912
    28  H    4.767956   8.570057  10.656030  10.586940   2.727848
    29  H    5.993721   9.424354  11.222621  10.861556   3.385635
    30  H    4.452263   9.150776  11.410924  11.792176   3.400104
    31  H    3.630217   8.435079  10.829360  11.231879   2.787961
    32  H    5.820388  10.171978  12.269104  12.266595   3.811536
    33  H    2.612635   2.504305   5.197642   6.432516   4.594674
    34  H    7.227200   5.985566   5.930842   4.593694   5.856409
    35  H    5.942206   6.006154   6.703713   5.848776   4.196357
    36  H    7.321359   4.537392   3.896371   2.413579   6.766098
    37  H    6.299091   6.396427   7.245558   6.263896   4.578930
    38  H    7.540181   6.396728   6.552659   5.122161   6.147105
    39  H    7.708710   7.486055   7.835119   6.446123   5.741435
    40  H    8.600205   3.697952   0.984607   2.257455   9.410715
                    6          7          8          9         10
     6  N    0.000000
     7  N    7.202031   0.000000
     8  N    4.960279   2.344508   0.000000
     9  C    2.435071   4.868385   2.749946   0.000000
    10  C    2.428567   5.855991   3.569609   2.451281   0.000000
    11  C    1.458673   6.348785   4.218996   1.525732   2.856028
    12  C    1.458041   7.129167   4.795885   2.880402   1.523114
    13  C    4.201095   3.587530   1.348607   2.445373   2.475215
    14  C    6.282507   1.403086   1.343901   4.083870   4.704001
    15  C    6.997688   2.412299   2.431400   5.028159   5.107293
    16  C    5.134099   4.102699   2.389578   3.755661   3.067660
    17  C    6.458590   3.672923   2.791257   4.857866   4.385245
    18  C    6.989254   1.476474   2.768242   4.634584   6.062194
    19  C    8.474769   2.896500   3.792432   6.466150   6.549034
    20  C    8.512509   1.356110   3.583503   6.201027   7.025167
    21  C    9.116324   2.429490   4.184631   6.918783   7.374627
    22  C    7.111881   2.516341   3.422971   4.722986   6.601876
    23  C   10.581444   3.707670   5.642457   8.371239   8.816055
    24  H    2.718005   4.849220   2.956439   1.106215   2.771779
    25  H    3.394602   4.316604   2.474019   1.097627   3.381626
    26  H    3.380120   6.073912   3.884452   3.390898   1.093238
    27  H    2.696512   5.878869   3.753422   2.733874   1.107535
    28  H    2.153671   6.602972   4.484185   2.154911   3.274291
    29  H    2.095380   6.752158   4.827126   2.151786   3.850415
    30  H    2.096079   7.959997   5.658808   3.854543   2.139476
    31  H    2.158426   7.431856   5.095079   3.338584   2.158541
    32  H    1.028738   8.183814   5.955691   3.351321   3.348210
    33  H    7.258086   4.563098   3.881299   5.837743   5.110566
    34  H    7.898017   2.077145   3.741245   5.608465   6.940694
    35  H    6.127489   2.073813   2.376488   3.882520   5.254542
    36  H    9.238146   2.076513   4.419594   6.884265   7.895210
    37  H    6.378715   2.801436   3.006875   3.995148   5.987091
    38  H    8.100159   2.817409   4.182911   5.693322   7.520972
    39  H    7.221647   3.447258   4.149418   4.959542   7.004618
    40  H   12.196554   5.542033   7.330074  10.077213  10.273680
                   11         12         13         14         15
    11  C    0.000000
    12  C    2.408337   0.000000
    13  C    3.692144   3.729888   0.000000
    14  C    5.534460   6.010620   2.324412   0.000000
    15  C    6.377021   6.454177   2.798513   1.405057   0.000000
    16  C    4.796387   4.311525   1.423439   2.700454   2.392950
    17  C    6.021311   5.673919   2.432956   2.388257   1.406160
    18  C    6.070898   7.204394   4.112520   2.500553   3.773082
    19  C    7.830635   7.912880   4.276314   2.544235   1.478060
    20  C    7.675025   8.351892   4.703480   2.382278   2.737816
    21  C    8.362773   8.748338   5.033210   2.844083   2.458005
    22  C    5.963085   7.519781   4.687035   3.365081   4.621706
    23  C    9.823316  10.208774   6.502316   4.308419   3.867938
    24  H    2.164947   3.320694   2.927528   4.257656   5.332720
    25  H    2.173696   3.857137   2.564698   3.686675   4.735146
    26  H    3.832079   2.159570   2.635770   4.803247   4.900619
    27  H    3.281020   2.149943   2.933835   4.873276   5.398465
    28  H    1.111731   2.711456   3.851809   5.709603   6.415625
    29  H    1.098693   3.356205   4.543442   6.127735   7.113055
    30  H    3.358359   1.101916   4.574220   6.834721   7.208264
    31  H    2.733256   1.113996   3.925549   6.232847   6.531318
    32  H    2.080881   2.081654   5.190626   7.279449   7.986626
    33  H    6.902506   6.332470   3.430228   3.382982   2.158767
    34  H    7.044105   8.126987   5.066360   3.311812   4.428752
    35  H    5.332699   6.384058   3.618719   2.579350   3.933183
    36  H    8.353321   9.196088   5.633399   3.347400   3.828924
    37  H    5.139489   6.787809   4.109671   3.205919   4.436393
    38  H    6.904120   8.456913   5.441606   3.836004   4.899635
    39  H    6.083796   7.815387   5.368700   4.290586   5.611632
    40  H   11.513994  11.694259   8.043084   5.993932   5.289070
                   16         17         18         19         20
    16  C    0.000000
    17  C    1.365423   0.000000
    18  C    5.006667   4.886177   0.000000
    19  C    3.743236   2.495704   4.370014   0.000000
    20  C    4.918547   4.141989   2.451771   2.461853   0.000000
    21  C    4.847711   3.765288   3.756708   1.467440   1.378362
    22  C    5.671715   5.653633   1.522940   5.234318   3.361577
    23  C    6.250487   5.082902   4.837869   2.611334   2.410521
    24  H    4.299611   5.318069   4.389436   6.723045   6.193357
    25  H    3.875769   4.776754   4.034095   6.096730   5.636885
    26  H    2.678592   3.947082   6.516684   6.268311   7.114002
    27  H    3.661132   4.850982   5.938119   6.795905   7.051088
    28  H    4.760433   5.961514   6.476365   7.842667   7.876423
    29  H    5.750559   6.910028   6.247722   8.532033   8.096530
    30  H    5.022704   6.359922   8.039197   8.637499   9.155131
    31  H    4.275524   5.622837   7.638882   7.963614   8.608423
    32  H    6.069234   7.408024   7.921474   9.464502   9.502016
    33  H    2.146795   1.090758   5.867297   2.693115   4.800453
    34  H    5.884972   5.640313   1.098485   4.758593   2.523298
    35  H    4.688762   4.823549   1.096052   4.791848   3.242770
    36  H    5.965710   5.231787   2.580840   3.452409   1.092149
    37  H    5.129192   5.267137   2.175606   5.249983   3.821764
    38  H    6.258316   6.042736   2.179866   5.238543   3.247587
    39  H    6.489412   6.596898   2.153756   6.263995   4.281702
    40  H    7.564673   6.277504   6.688515   3.853695   4.270918
                   21         22         23         24         25
    21  C    0.000000
    22  C    4.629202   0.000000
    23  C    1.476184   5.645437   0.000000
    24  H    7.027511   4.639683   8.436433   0.000000
    25  H    6.426848   3.861612   7.854474   1.783987   0.000000
    26  H    7.259681   7.168336   8.663883   3.768016   4.188436
    27  H    7.490503   6.624452   8.892377   2.591812   3.727607
    28  H    8.465846   6.234662   9.926532   3.072739   2.452449
    29  H    8.917510   5.963322  10.348490   2.455553   2.523397
    30  H    9.509071   8.459380  10.946930   4.098601   4.884225
    31  H    8.902955   7.846745  10.364011   4.042373   4.123312
    32  H   10.116445   7.948079  11.584224   3.620298   4.213945
    33  H    4.132744   6.630640   5.262786   6.341011   5.785924
    34  H    3.869378   2.169567   4.680110   5.233098   5.068746
    35  H    4.422470   2.165784   5.602766   3.466269   3.477472
    36  H    2.133840   3.349589   2.565250   6.776695   6.266112
    37  H    4.925504   1.097248   6.088536   4.127145   3.018482
    38  H    4.452027   1.097734   5.266116   5.695956   4.771687
    39  H    5.606928   1.098192   6.553277   4.709124   4.153486
    40  H    3.192422   7.509417   1.871967  10.163154   9.613344
                   26         27         28         29         30
    26  H    0.000000
    27  H    1.788746   0.000000
    28  H    4.055494   3.973813   0.000000
    29  H    4.873875   4.089836   1.781683   0.000000
    30  H    2.500689   2.417663   3.727690   4.177809   0.000000
    31  H    2.442095   3.066906   2.563308   3.729286   1.793381
    32  H    4.201395   3.607315   2.541121   2.376760   2.396069
    33  H    4.488217   5.626668   6.757283   7.839259   6.938081
    34  H    7.371986   6.700516   7.514541   7.169109   8.903278
    35  H    5.793688   5.012210   5.879538   5.514034   7.160899
    36  H    8.061932   7.845229   8.604744   8.662559  10.002985
    37  H    6.573774   6.158655   5.288474   5.176239   7.785023
    38  H    8.012282   7.604850   7.068598   6.914473   9.421447
    39  H    7.689323   6.921307   6.466275   5.896499   8.722331
    40  H    9.981110  10.359556  11.580670  12.102471  12.369047
                   31         32         33         34         35
    31  H    0.000000
    32  H    2.534048   0.000000
    33  H    6.169662   8.168754   0.000000
    34  H    8.624921   8.828639   6.560139   0.000000
    35  H    6.929896   7.064977   5.867672   1.777765   0.000000
    36  H    9.504318  10.212369   5.884912   2.239115   3.516888
    37  H    7.015127   7.183762   6.252628   3.087299   2.520997
    38  H    8.704200   8.928794   6.926266   2.521934   3.086802
    39  H    8.231473   7.992778   7.609254   2.501285   2.492381
    40  H   11.803673  13.203864   6.167904   6.462546   7.412752
                   36         37         38         39         40
    36  H    0.000000
    37  H    4.063598   0.000000
    38  H    3.034713   1.784442   0.000000
    39  H    4.112949   1.777271   1.772457   0.000000
    40  H    4.352935   7.943110   7.078689   8.404510   0.000000
 Stoichiometry    C15H17FN4O3
 Framework group  C1[X(C15H17FN4O3)]
 Deg. of freedom   114
 Full point group                 C1      NOp   1
 Largest Abelian subgroup         C1      NOp   1
 Largest concise Abelian subgroup C1      NOp   1
                         Standard orientation:                         
 ---------------------------------------------------------------------
 Center     Atomic      Atomic             Coordinates (Angstroms)
 Number     Number       Type             X           Y           Z
 ---------------------------------------------------------------------
      1          9           0        1.976632   -2.782685   -0.373797
      2          8           0       -3.044334   -2.387801   -0.432929
      3          8           0       -5.465338   -1.282510    0.241684
      4          8           0       -5.615086    0.973323    0.207016
      5          7           0        2.922637   -0.146718    0.034339
      6          7           0        5.648606    0.551852    0.271574
      7          7           0       -1.502623    1.402360    0.195379
      8          7           0        0.691662    0.583074    0.092417
      9          6           0        3.350972    1.240815   -0.147682
     10          6           0        3.825127   -0.923618    0.900738
     11          6           0        4.785977    1.262832   -0.665499
     12          6           0        5.259182   -0.847951    0.393160
     13          6           0        1.573726   -0.432601   -0.003023
     14          6           0       -0.624659    0.322022    0.020165
     15          6           0       -1.170004   -0.959848   -0.163121
     16          6           0        1.086625   -1.754945   -0.203816
     17          6           0       -0.250656   -2.015868   -0.293147
     18          6           0       -0.982313    2.748435    0.507365
     19          6           0       -2.620752   -1.238152   -0.213514
     20          6           0       -2.840350    1.179835    0.193720
     21          6           0       -3.444646   -0.047390    0.024527
     22          6           0       -0.698102    3.603830   -0.720181
     23          6           0       -4.915242   -0.046446    0.152842
     24          1           0        3.291712    1.794769    0.808003
     25          1           0        2.670203    1.720670   -0.862579
     26          1           0        3.496078   -1.965118    0.947365
     27          1           0        3.788245   -0.492907    1.920426
     28          1           0        4.799774    0.827712   -1.688448
     29          1           0        5.122140    2.305648   -0.747078
     30          1           0        5.910615   -1.341251    1.132422
     31          1           0        5.333223   -1.413153   -0.563946
     32          1           0        6.646630    0.665353    0.049384
     33          1           0       -0.622415   -3.022360   -0.489416
     34          1           0       -1.728363    3.231928    1.152590
     35          1           0       -0.067525    2.600670    1.092735
     36          1           0       -3.465279    2.059108    0.364397
     37          1           0        0.050180    3.131452   -1.368939
     38          1           0       -1.609230    3.784542   -1.305168
     39          1           0       -0.307245    4.579873   -0.403011
     40          1           0       -6.431671   -1.126531    0.348089
 ---------------------------------------------------------------------
 Rotational constants (GHZ):      0.5562710      0.1351863      0.1114593
 Standard basis: 3-21G (6D, 7F)
 There are   241 symmetry adapted cartesian basis functions of A   symmetry.
 There are   241 symmetry adapted basis functions of A   symmetry.
   241 basis functions,   396 primitive gaussians,   241 cartesian basis functions
    84 alpha electrons       84 beta electrons
       nuclear repulsion energy      1951.0024741653 Hartrees.
 NAtoms=   40 NActive=   40 NUniq=   40 SFac= 1.00D+00 NAtFMM=   60 NAOKFM=F Big=F
 Integral buffers will be    131072 words long.
 Raffenetti 2 integral format.
 Two-electron integral symmetry is turned on.
 One-electron integrals computed using PRISM.
 PrsmSu:  requested number of processors reduced to:   9 ShMem   1 Linda.
 NBasis=   241 RedAO= T EigKep=  2.18D-03  NBF=   241
 NBsUse=   241 1.00D-06 EigRej= -1.00D+00 NBFU=   241
 ExpMin= 1.83D-01 ExpMax= 4.14D+02 ExpMxC= 4.14D+02 IAcc=1 IRadAn=         1 AccDes= 0.00D+00
 Harris functional with IExCor=  402 and IRadAn=       1 diagonalized for initial guess.
 HarFok:  IExCor=  402 AccDes= 0.00D+00 IRadAn=         1 IDoV= 1 UseB2=F ITyADJ=14
 ICtDFT=  3500011 ScaDFX=  1.000000  1.000000  1.000000  1.000000
 FoFCou: FMM=F IPFlag=           0 FMFlag=      100000 FMFlg1=           0
         NFxFlg=           0 DoJE=T BraDBF=F KetDBF=T FulRan=T
         wScrn=  0.000000 ICntrl=     500 IOpCl=  0 I1Cent=   200000004 NGrid=           0
         NMat0=    1 NMatS0=      1 NMatT0=    0 NMatD0=    1 NMtDS0=    0 NMtDT0=    0
 Petite list used in FoFCou.
 Requested convergence on RMS density matrix=1.00D-08 within 128 cycles.
 Requested convergence on MAX density matrix=1.00D-06.
 Requested convergence on             energy=1.00D-06.
 No special actions if energy rises.
 Integral accuracy reduced to 1.0D-05 until final iterations.
 EnCoef did     2 forward-backward iterations
 Initial convergence to 1.0D-05 achieved.  Increase integral accuracy.
 SCF Done:  E(RB3LYP) =  -1120.18942525     A.U. after   17 cycles
            NFock= 17  Conv=0.87D-08     -V/T= 2.0082

 **********************************************************************

            Population analysis using the SCF density.

 **********************************************************************

 Orbital symmetries:
       Occupied  (A) (A) (A) (A) (A) (A) (A) (A) (A) (A) (A) (A)
                 (A) (A) (A) (A) (A) (A) (A) (A) (A) (A) (A) (A)
                 (A) (A) (A) (A) (A) (A) (A) (A) (A) (A) (A) (A)
                 (A) (A) (A) (A) (A) (A) (A) (A) (A) (A) (A) (A)
                 (A) (A) (A) (A) (A) (A) (A) (A) (A) (A) (A) (A)
                 (A) (A) (A) (A) (A) (A) (A) (A) (A) (A) (A) (A)
                 (A) (A) (A) (A) (A) (A) (A) (A) (A) (A) (A) (A)
       Virtual   (A) (A) (A) (A) (A) (A) (A) (A) (A) (A) (A) (A)
                 (A) (A) (A) (A) (A) (A) (A) (A) (A) (A) (A) (A)
                 (A) (A) (A) (A) (A) (A) (A) (A) (A) (A) (A) (A)
                 (A) (A) (A) (A) (A) (A) (A) (A) (A) (A) (A) (A)
                 (A) (A) (A) (A) (A) (A) (A) (A) (A) (A) (A) (A)
                 (A) (A) (A) (A) (A) (A) (A) (A) (A) (A) (A) (A)
                 (A) (A) (A) (A) (A) (A) (A) (A) (A) (A) (A) (A)
                 (A) (A) (A) (A) (A) (A) (A) (A) (A) (A) (A) (A)
                 (A) (A) (A) (A) (A) (A) (A) (A) (A) (A) (A) (A)
                 (A) (A) (A) (A) (A) (A) (A) (A) (A) (A) (A) (A)
                 (A) (A) (A) (A) (A) (A) (A) (A) (A) (A) (A) (A)
                 (A) (A) (A) (A) (A) (A) (A) (A) (A) (A) (A) (A)
                 (A) (A) (A) (A) (A) (A) (A) (A) (A) (A) (A) (A)
                 (A)
 The electronic state is 1-A.
 Alpha  occ. eigenvalues --  -24.58340 -19.06867 -19.01197 -18.99589 -14.33671
 Alpha  occ. eigenvalues --  -14.28827 -14.27019 -14.24232 -10.25010 -10.22839
 Alpha  occ. eigenvalues --  -10.22674 -10.22437 -10.19923 -10.19861 -10.18231
 Alpha  occ. eigenvalues --  -10.16448 -10.16093 -10.15721 -10.15633 -10.15451
 Alpha  occ. eigenvalues --  -10.14891 -10.14134 -10.13133  -1.22012  -1.09835
 Alpha  occ. eigenvalues --   -1.02832  -1.01346  -1.00243  -0.99224  -0.94771
 Alpha  occ. eigenvalues --   -0.90789  -0.84012  -0.81300  -0.79485  -0.78172
 Alpha  occ. eigenvalues --   -0.76584  -0.72252  -0.69241  -0.67261  -0.65824
 Alpha  occ. eigenvalues --   -0.65357  -0.61796  -0.61214  -0.58938  -0.56385
 Alpha  occ. eigenvalues --   -0.55648  -0.54543  -0.53098  -0.51672  -0.49296
 Alpha  occ. eigenvalues --   -0.48577  -0.48444  -0.47237  -0.47002  -0.46914
 Alpha  occ. eigenvalues --   -0.46312  -0.45516  -0.45162  -0.44913  -0.43392
 Alpha  occ. eigenvalues --   -0.43171  -0.42576  -0.42070  -0.40854  -0.40533
 Alpha  occ. eigenvalues --   -0.39602  -0.39094  -0.37681  -0.37598  -0.36893
 Alpha  occ. eigenvalues --   -0.36371  -0.36300  -0.35739  -0.35329  -0.35070
 Alpha  occ. eigenvalues --   -0.30271  -0.29022  -0.28352  -0.28098  -0.25800
 Alpha  occ. eigenvalues --   -0.23091  -0.22321  -0.21756  -0.20905
 Alpha virt. eigenvalues --   -0.04949  -0.03681   0.00282   0.03784   0.08679
 Alpha virt. eigenvalues --    0.09581   0.10472   0.11278   0.11638   0.12242
 Alpha virt. eigenvalues --    0.12859   0.13833   0.14537   0.15159   0.16030
 Alpha virt. eigenvalues --    0.16574   0.16997   0.17192   0.17969   0.18246
 Alpha virt. eigenvalues --    0.18462   0.19038   0.19764   0.20356   0.20760
 Alpha virt. eigenvalues --    0.21644   0.22859   0.23941   0.24109   0.24350
 Alpha virt. eigenvalues --    0.25305   0.26042   0.26326   0.27354   0.28593
 Alpha virt. eigenvalues --    0.29204   0.29718   0.31731   0.36022   0.36496
 Alpha virt. eigenvalues --    0.39882   0.40292   0.43914   0.44762   0.49860
 Alpha virt. eigenvalues --    0.53540   0.55285   0.58476   0.63212   0.65908
 Alpha virt. eigenvalues --    0.66402   0.67498   0.68600   0.68717   0.69349
 Alpha virt. eigenvalues --    0.70225   0.70780   0.71060   0.71563   0.72053
 Alpha virt. eigenvalues --    0.73069   0.73768   0.74112   0.74614   0.75581
 Alpha virt. eigenvalues --    0.75840   0.76319   0.77522   0.77753   0.78438
 Alpha virt. eigenvalues --    0.79361   0.80255   0.80512   0.81113   0.81394
 Alpha virt. eigenvalues --    0.84261   0.85822   0.87384   0.88614   0.89464
 Alpha virt. eigenvalues --    0.90781   0.92264   0.95685   0.96969   0.97533
 Alpha virt. eigenvalues --    0.97976   0.99520   0.99861   1.00513   1.02319
 Alpha virt. eigenvalues --    1.02839   1.03128   1.04272   1.05277   1.05660
 Alpha virt. eigenvalues --    1.08494   1.09094   1.09873   1.11197   1.12855
 Alpha virt. eigenvalues --    1.13736   1.16755   1.17474   1.21015   1.21699
 Alpha virt. eigenvalues --    1.23296   1.26805   1.27696   1.29880   1.32258
 Alpha virt. eigenvalues --    1.34081   1.36476   1.37494   1.39229   1.42621
 Alpha virt. eigenvalues --    1.44302   1.46393   1.48374   1.50107   1.51637
 Alpha virt. eigenvalues --    1.54578   1.57392   1.58275   1.59644   1.61337
 Alpha virt. eigenvalues --    1.62405   1.64870   1.65503   1.67145   1.67524
 Alpha virt. eigenvalues --    1.69817   1.71339   1.76180   1.78841   1.79679
 Alpha virt. eigenvalues --    1.84521   1.86305   1.87551   1.90670   1.92523
 Alpha virt. eigenvalues --    1.94186   2.00175   2.01193   2.04721   2.13348
 Alpha virt. eigenvalues --    2.14872   2.18211   2.32486   2.51318   2.66760
 Alpha virt. eigenvalues --    2.80202   2.92031   3.10817   3.15628   3.42780
 Alpha virt. eigenvalues --    3.59438   3.99903
          Condensed to atoms (all electrons):
               1          2          3          4          5          6
     1  F    9.081748   0.000000   0.000000   0.000000  -0.000765   0.000000
     2  O    0.000000   8.074925  -0.000923  -0.000001   0.000000   0.000000
     3  O    0.000000  -0.000923   8.236890  -0.065928   0.000000   0.000000
     4  O    0.000000  -0.000001  -0.065928   8.145303   0.000000   0.000000
     5  N   -0.000765   0.000000   0.000000   0.000000   7.261349  -0.003080
     6  N    0.000000   0.000000   0.000000   0.000000  -0.003080   6.944983
     7  N    0.000000  -0.000026  -0.000001   0.000075  -0.000002   0.000000
     8  N    0.000458  -0.000001   0.000000   0.000000  -0.066662  -0.000001
     9  C   -0.000023   0.000000   0.000000   0.000000   0.253318  -0.060824
    10  C   -0.006152   0.000000   0.000000   0.000000   0.261838  -0.064478
    11  C   -0.000001   0.000000   0.000000   0.000000  -0.052823   0.287237
    12  C   -0.000110   0.000000   0.000000   0.000000  -0.051254   0.293752
    13  C   -0.050745  -0.000006   0.000000   0.000000   0.281650  -0.000120
    14  C   -0.000016   0.003003  -0.000002   0.000001   0.002843   0.000000
    15  C    0.002731  -0.127790   0.000114  -0.000016  -0.000333   0.000000
    16  C    0.296219   0.000557   0.000000   0.000000  -0.086300  -0.000001
    17  C   -0.058914   0.004757   0.000000   0.000000   0.003780   0.000000
    18  C    0.000000   0.000000   0.000000   0.000002   0.000004   0.000000
    19  C   -0.000004   0.644530   0.002627   0.001902   0.000001   0.000000
    20  C    0.000000   0.003389   0.003043   0.004219   0.000000   0.000000
    21  C    0.000000  -0.113975  -0.095428  -0.112140   0.000000   0.000000
    22  C    0.000000   0.000000   0.000000   0.000000   0.000003   0.000000
    23  C    0.000000  -0.003694   0.220040   0.520987   0.000000   0.000000
    24  H    0.000000   0.000000   0.000000   0.000000  -0.047003   0.002942
    25  H   -0.000001   0.000000   0.000000   0.000000  -0.033567   0.002140
    26  H    0.022976   0.000000   0.000000   0.000000  -0.028820   0.002071
    27  H    0.000088   0.000000   0.000000   0.000000  -0.051706   0.002934
    28  H    0.000000   0.000000   0.000000   0.000000   0.000686  -0.049980
    29  H    0.000000   0.000000   0.000000   0.000000   0.002499  -0.030780
    30  H   -0.000002   0.000000   0.000000   0.000000   0.002380  -0.031550
    31  H    0.000094   0.000000   0.000000   0.000000   0.000336  -0.049566
    32  H    0.000000   0.000000   0.000000   0.000000  -0.000102   0.329195
    33  H   -0.002041   0.013135   0.000000   0.000000  -0.000013   0.000000
    34  H    0.000000   0.000000   0.000000  -0.000002   0.000000   0.000000
    35  H    0.000000   0.000000   0.000000   0.000000  -0.000101   0.000000
    36  H    0.000000  -0.000003   0.000218   0.017253   0.000000   0.000000
    37  H    0.000000   0.000000   0.000000   0.000000  -0.000014   0.000000
    38  H    0.000000   0.000000   0.000000   0.000000   0.000000   0.000000
    39  H    0.000000   0.000000   0.000000   0.000000   0.000000   0.000000
    40  H    0.000000   0.000182   0.239557   0.005818   0.000000   0.000000
               7          8          9         10         11         12
     1  F    0.000000   0.000458  -0.000023  -0.006152  -0.000001  -0.000110
     2  O   -0.000026  -0.000001   0.000000   0.000000   0.000000   0.000000
     3  O   -0.000001   0.000000   0.000000   0.000000   0.000000   0.000000
     4  O    0.000075   0.000000   0.000000   0.000000   0.000000   0.000000
     5  N   -0.000002  -0.066662   0.253318   0.261838  -0.052823  -0.051254
     6  N    0.000000  -0.000001  -0.060824  -0.064478   0.287237   0.293752
     7  N    7.423575  -0.057871  -0.000009   0.000000   0.000000   0.000000
     8  N   -0.057871   7.156073  -0.000771   0.000518   0.000400  -0.000040
     9  C   -0.000009  -0.000771   5.244061  -0.069826   0.244548  -0.008115
    10  C    0.000000   0.000518  -0.069826   5.308163  -0.011043   0.250623
    11  C    0.000000   0.000400   0.244548  -0.011043   5.270664  -0.093419
    12  C    0.000000  -0.000040  -0.008115   0.250623  -0.093419   5.251269
    13  C    0.002697   0.361781  -0.058475  -0.057935   0.004743   0.002800
    14  C    0.191801   0.403872   0.000087  -0.000059  -0.000002   0.000001
    15  C   -0.054164  -0.053470   0.000022   0.000000   0.000001   0.000000
    16  C   -0.000291  -0.039133   0.002933  -0.001962  -0.000048  -0.000020
    17  C    0.004769  -0.033750  -0.000107   0.000021   0.000000  -0.000003
    18  C    0.231573  -0.005635  -0.000039   0.000000   0.000000   0.000000
    19  C   -0.030961   0.003139   0.000000   0.000000   0.000000   0.000000
    20  C    0.246473   0.001555   0.000000   0.000000   0.000000   0.000000
    21  C   -0.018822  -0.000352   0.000000   0.000000   0.000000   0.000000
    22  C   -0.051366  -0.002070  -0.000074   0.000000   0.000000   0.000000
    23  C    0.004368   0.000000   0.000000   0.000000   0.000000   0.000000
    24  H    0.000000   0.002241   0.346221  -0.001526  -0.052658  -0.000393
    25  H   -0.000034   0.008579   0.359283   0.003389  -0.030585  -0.000020
    26  H    0.000000  -0.000060   0.003016   0.337155  -0.000006  -0.027947
    27  H    0.000000   0.000456  -0.003063   0.342955  -0.000007  -0.056346
    28  H    0.000000  -0.000004  -0.059607   0.000071   0.328187  -0.005692
    29  H    0.000000   0.000001  -0.034346  -0.000048   0.367913   0.004498
    30  H    0.000000   0.000000  -0.000121  -0.033347   0.004630   0.365596
    31  H    0.000000   0.000000  -0.000172  -0.059215  -0.005424   0.329988
    32  H    0.000000   0.000000   0.004878   0.005081  -0.041993  -0.042143
    33  H   -0.000017  -0.000063   0.000001   0.000000   0.000000   0.000000
    34  H   -0.035358   0.000383   0.000000   0.000000   0.000000   0.000000
    35  H   -0.036303   0.017805   0.000240  -0.000001   0.000000   0.000000
    36  H   -0.035179  -0.000035   0.000000   0.000000   0.000000   0.000000
    37  H   -0.002430   0.003724   0.000010   0.000000   0.000002   0.000000
    38  H   -0.000943   0.000002   0.000000   0.000000   0.000000   0.000000
    39  H    0.002558   0.000007   0.000001   0.000000   0.000000   0.000000
    40  H    0.000000   0.000000   0.000000   0.000000   0.000000   0.000000
              13         14         15         16         17         18
     1  F   -0.050745  -0.000016   0.002731   0.296219  -0.058914   0.000000
     2  O   -0.000006   0.003003  -0.127790   0.000557   0.004757   0.000000
     3  O    0.000000  -0.000002   0.000114   0.000000   0.000000   0.000000
     4  O    0.000000   0.000001  -0.000016   0.000000   0.000000   0.000002
     5  N    0.281650   0.002843  -0.000333  -0.086300   0.003780   0.000004
     6  N   -0.000120   0.000000   0.000000  -0.000001   0.000000   0.000000
     7  N    0.002697   0.191801  -0.054164  -0.000291   0.004769   0.231573
     8  N    0.361781   0.403872  -0.053470  -0.039133  -0.033750  -0.005635
     9  C   -0.058475   0.000087   0.000022   0.002933  -0.000107  -0.000039
    10  C   -0.057935  -0.000059   0.000000  -0.001962   0.000021   0.000000
    11  C    0.004743  -0.000002   0.000001  -0.000048   0.000000   0.000000
    12  C    0.002800   0.000001   0.000000  -0.000020  -0.000003   0.000000
    13  C    5.025082  -0.082688  -0.012932   0.137929  -0.127320   0.000139
    14  C   -0.082688   4.860545   0.200347  -0.027954  -0.098053  -0.048868
    15  C   -0.012932   0.200347   6.244691  -0.020057   0.208231   0.002391
    16  C    0.137929  -0.027954  -0.020057   5.333646   0.170627  -0.000002
    17  C   -0.127320  -0.098053   0.208231   0.170627   5.761212  -0.000077
    18  C    0.000139  -0.048868   0.002391  -0.000002  -0.000077   5.203879
    19  C   -0.000066   0.025234  -0.064472   0.008984  -0.071791  -0.000076
    20  C   -0.000042  -0.069474  -0.010205  -0.000013  -0.001105  -0.058118
    21  C   -0.000038  -0.025278  -0.171998   0.000033   0.014810   0.002030
    22  C   -0.000015  -0.001071  -0.000169  -0.000004   0.000004   0.268885
    23  C    0.000000  -0.000496   0.005850   0.000000   0.000002  -0.000035
    24  H   -0.002664  -0.000077  -0.000001  -0.000196   0.000007  -0.000031
    25  H   -0.002046  -0.000071   0.000020   0.000677  -0.000019   0.000000
    26  H   -0.010066   0.000018  -0.000029   0.000723   0.000352   0.000000
    27  H   -0.001477  -0.000004  -0.000006   0.000579   0.000048   0.000000
    28  H   -0.000259   0.000000   0.000000  -0.000018   0.000000   0.000000
    29  H   -0.000058   0.000000   0.000000   0.000000   0.000000   0.000000
    30  H   -0.000040   0.000000   0.000000  -0.000001   0.000000   0.000000
    31  H   -0.000262   0.000000   0.000000   0.000039   0.000001   0.000000
    32  H    0.000008   0.000000   0.000000   0.000000   0.000000   0.000000
    33  H    0.003973   0.003172  -0.051414  -0.034849   0.371717   0.000000
    34  H   -0.000003   0.003697  -0.000015   0.000001   0.000001   0.367094
    35  H   -0.000264  -0.001091   0.000867   0.000035  -0.000013   0.362737
    36  H    0.000001   0.002767  -0.000479   0.000000   0.000002  -0.002245
    37  H    0.000012   0.002245   0.000062   0.000009  -0.000002  -0.038690
    38  H    0.000000   0.000022   0.000006   0.000000   0.000000  -0.040658
    39  H    0.000001  -0.000001   0.000001   0.000000   0.000000  -0.036559
    40  H    0.000000   0.000000   0.000006   0.000000   0.000000   0.000000
              19         20         21         22         23         24
     1  F   -0.000004   0.000000   0.000000   0.000000   0.000000   0.000000
     2  O    0.644530   0.003389  -0.113975   0.000000  -0.003694   0.000000
     3  O    0.002627   0.003043  -0.095428   0.000000   0.220040   0.000000
     4  O    0.001902   0.004219  -0.112140   0.000000   0.520987   0.000000
     5  N    0.000001   0.000000   0.000000   0.000003   0.000000  -0.047003
     6  N    0.000000   0.000000   0.000000   0.000000   0.000000   0.002942
     7  N   -0.030961   0.246473  -0.018822  -0.051366   0.004368   0.000000
     8  N    0.003139   0.001555  -0.000352  -0.002070   0.000000   0.002241
     9  C    0.000000   0.000000   0.000000  -0.000074   0.000000   0.346221
    10  C    0.000000   0.000000   0.000000   0.000000   0.000000  -0.001526
    11  C    0.000000   0.000000   0.000000   0.000000   0.000000  -0.052658
    12  C    0.000000   0.000000   0.000000   0.000000   0.000000  -0.000393
    13  C   -0.000066  -0.000042  -0.000038  -0.000015   0.000000  -0.002664
    14  C    0.025234  -0.069474  -0.025278  -0.001071  -0.000496  -0.000077
    15  C   -0.064472  -0.010205  -0.171998  -0.000169   0.005850  -0.000001
    16  C    0.008984  -0.000013   0.000033  -0.000004   0.000000  -0.000196
    17  C   -0.071791  -0.001105   0.014810   0.000004   0.000002   0.000007
    18  C   -0.000076  -0.058118   0.002030   0.268885  -0.000035  -0.000031
    19  C    5.213523  -0.025572  -0.062081  -0.000001  -0.037948   0.000000
    20  C   -0.025572   5.089489   0.323318   0.000188  -0.089583   0.000000
    21  C   -0.062081   0.323318   6.435755  -0.000062   0.062843   0.000000
    22  C   -0.000001   0.000188  -0.000062   5.356525   0.000001   0.000005
    23  C   -0.037948  -0.089583   0.062843   0.000001   4.691342   0.000000
    24  H    0.000000   0.000000   0.000000   0.000005   0.000000   0.568834
    25  H    0.000000   0.000000   0.000000   0.000116   0.000000  -0.028907
    26  H    0.000000   0.000000   0.000000   0.000000   0.000000  -0.000123
    27  H    0.000000   0.000000   0.000000   0.000000   0.000000   0.008144
    28  H    0.000000   0.000000   0.000000   0.000000   0.000000   0.005174
    29  H    0.000000   0.000000   0.000000   0.000000   0.000000  -0.000897
    30  H    0.000000   0.000000   0.000000   0.000000   0.000000   0.000032
    31  H    0.000000   0.000000   0.000000   0.000000   0.000000   0.000216
    32  H    0.000000   0.000000   0.000000   0.000000   0.000000  -0.000157
    33  H    0.002022  -0.000048   0.001093   0.000000   0.000003   0.000000
    34  H   -0.000012  -0.002237   0.000511  -0.049050  -0.000009   0.000000
    35  H   -0.000006   0.002345  -0.000097  -0.046242   0.000000   0.000331
    36  H    0.002741   0.367929  -0.052953   0.000228   0.001046   0.000000
    37  H   -0.000003  -0.000098   0.000009   0.362807   0.000000  -0.000021
    38  H    0.000000   0.001853  -0.000040   0.366383   0.000000   0.000000
    39  H    0.000000  -0.000018   0.000001   0.350984   0.000000   0.000000
    40  H   -0.000105  -0.000283   0.012654   0.000000  -0.030793   0.000000
              25         26         27         28         29         30
     1  F   -0.000001   0.022976   0.000088   0.000000   0.000000  -0.000002
     2  O    0.000000   0.000000   0.000000   0.000000   0.000000   0.000000
     3  O    0.000000   0.000000   0.000000   0.000000   0.000000   0.000000
     4  O    0.000000   0.000000   0.000000   0.000000   0.000000   0.000000
     5  N   -0.033567  -0.028820  -0.051706   0.000686   0.002499   0.002380
     6  N    0.002140   0.002071   0.002934  -0.049980  -0.030780  -0.031550
     7  N   -0.000034   0.000000   0.000000   0.000000   0.000000   0.000000
     8  N    0.008579  -0.000060   0.000456  -0.000004   0.000001   0.000000
     9  C    0.359283   0.003016  -0.003063  -0.059607  -0.034346  -0.000121
    10  C    0.003389   0.337155   0.342955   0.000071  -0.000048  -0.033347
    11  C   -0.030585  -0.000006  -0.000007   0.328187   0.367913   0.004630
    12  C   -0.000020  -0.027947  -0.056346  -0.005692   0.004498   0.365596
    13  C   -0.002046  -0.010066  -0.001477  -0.000259  -0.000058  -0.000040
    14  C   -0.000071   0.000018  -0.000004   0.000000   0.000000   0.000000
    15  C    0.000020  -0.000029  -0.000006   0.000000   0.000000   0.000000
    16  C    0.000677   0.000723   0.000579  -0.000018   0.000000  -0.000001
    17  C   -0.000019   0.000352   0.000048   0.000000   0.000000   0.000000
    18  C    0.000000   0.000000   0.000000   0.000000   0.000000   0.000000
    19  C    0.000000   0.000000   0.000000   0.000000   0.000000   0.000000
    20  C    0.000000   0.000000   0.000000   0.000000   0.000000   0.000000
    21  C    0.000000   0.000000   0.000000   0.000000   0.000000   0.000000
    22  C    0.000116   0.000000   0.000000   0.000000   0.000000   0.000000
    23  C    0.000000   0.000000   0.000000   0.000000   0.000000   0.000000
    24  H   -0.028907  -0.000123   0.008144   0.005174  -0.000897   0.000032
    25  H    0.505742  -0.000049  -0.000122   0.000594  -0.001750   0.000001
    26  H   -0.000049   0.506080  -0.026911   0.000056   0.000001  -0.001976
    27  H   -0.000122  -0.026911   0.574363   0.000267   0.000025  -0.001186
    28  H    0.000594   0.000056   0.000267   0.633068  -0.035173  -0.000170
    29  H   -0.001750   0.000001   0.000025  -0.035173   0.533263  -0.000069
    30  H    0.000001  -0.001976  -0.001186  -0.000170  -0.000069   0.532942
    31  H    0.000059   0.000601   0.005314   0.012188  -0.000169  -0.034278
    32  H   -0.000085  -0.000084  -0.000159  -0.001310  -0.004015  -0.003713
    33  H    0.000000   0.000008   0.000000   0.000000   0.000000   0.000000
    34  H    0.000001   0.000000   0.000000   0.000000   0.000000   0.000000
    35  H    0.000015   0.000000   0.000002   0.000000   0.000000   0.000000
    36  H    0.000000   0.000000   0.000000   0.000000   0.000000   0.000000
    37  H    0.001302   0.000000   0.000000   0.000000   0.000000   0.000000
    38  H   -0.000002   0.000000   0.000000   0.000000   0.000000   0.000000
    39  H   -0.000007   0.000000   0.000000   0.000000   0.000000   0.000000
    40  H    0.000000   0.000000   0.000000   0.000000   0.000000   0.000000
              31         32         33         34         35         36
     1  F    0.000094   0.000000  -0.002041   0.000000   0.000000   0.000000
     2  O    0.000000   0.000000   0.013135   0.000000   0.000000  -0.000003
     3  O    0.000000   0.000000   0.000000   0.000000   0.000000   0.000218
     4  O    0.000000   0.000000   0.000000  -0.000002   0.000000   0.017253
     5  N    0.000336  -0.000102  -0.000013   0.000000  -0.000101   0.000000
     6  N   -0.049566   0.329195   0.000000   0.000000   0.000000   0.000000
     7  N    0.000000   0.000000  -0.000017  -0.035358  -0.036303  -0.035179
     8  N    0.000000   0.000000  -0.000063   0.000383   0.017805  -0.000035
     9  C   -0.000172   0.004878   0.000001   0.000000   0.000240   0.000000
    10  C   -0.059215   0.005081   0.000000   0.000000  -0.000001   0.000000
    11  C   -0.005424  -0.041993   0.000000   0.000000   0.000000   0.000000
    12  C    0.329988  -0.042143   0.000000   0.000000   0.000000   0.000000
    13  C   -0.000262   0.000008   0.003973  -0.000003  -0.000264   0.000001
    14  C    0.000000   0.000000   0.003172   0.003697  -0.001091   0.002767
    15  C    0.000000   0.000000  -0.051414  -0.000015   0.000867  -0.000479
    16  C    0.000039   0.000000  -0.034849   0.000001   0.000035   0.000000
    17  C    0.000001   0.000000   0.371717   0.000001  -0.000013   0.000002
    18  C    0.000000   0.000000   0.000000   0.367094   0.362737  -0.002245
    19  C    0.000000   0.000000   0.002022  -0.000012  -0.000006   0.002741
    20  C    0.000000   0.000000  -0.000048  -0.002237   0.002345   0.367929
    21  C    0.000000   0.000000   0.001093   0.000511  -0.000097  -0.052953
    22  C    0.000000   0.000000   0.000000  -0.049050  -0.046242   0.000228
    23  C    0.000000   0.000000   0.000003  -0.000009   0.000000   0.001046
    24  H    0.000216  -0.000157   0.000000   0.000000   0.000331   0.000000
    25  H    0.000059  -0.000085   0.000000   0.000001   0.000015   0.000000
    26  H    0.000601  -0.000084   0.000008   0.000000   0.000000   0.000000
    27  H    0.005314  -0.000159   0.000000   0.000000   0.000002   0.000000
    28  H    0.012188  -0.001310   0.000000   0.000000   0.000000   0.000000
    29  H   -0.000169  -0.004015   0.000000   0.000000   0.000000   0.000000
    30  H   -0.034278  -0.003713   0.000000   0.000000   0.000000   0.000000
    31  H    0.627559  -0.001485   0.000000   0.000000   0.000000   0.000000
    32  H   -0.001485   0.479807   0.000000   0.000000   0.000000   0.000000
    33  H    0.000000   0.000000   0.444672   0.000000   0.000000   0.000000
    34  H    0.000000   0.000000   0.000000   0.522147  -0.022328   0.002318
    35  H    0.000000   0.000000   0.000000  -0.022328   0.476452   0.000086
    36  H    0.000000   0.000000   0.000000   0.002318   0.000086   0.440920
    37  H    0.000000   0.000000   0.000000   0.003341  -0.002158  -0.000004
    38  H    0.000000   0.000000   0.000000  -0.002676   0.003082   0.000409
    39  H    0.000000   0.000000   0.000000  -0.000199  -0.000052  -0.000020
    40  H    0.000000   0.000000   0.000000   0.000000   0.000000  -0.000016
              37         38         39         40
     1  F    0.000000   0.000000   0.000000   0.000000
     2  O    0.000000   0.000000   0.000000   0.000182
     3  O    0.000000   0.000000   0.000000   0.239557
     4  O    0.000000   0.000000   0.000000   0.005818
     5  N   -0.000014   0.000000   0.000000   0.000000
     6  N    0.000000   0.000000   0.000000   0.000000
     7  N   -0.002430  -0.000943   0.002558   0.000000
     8  N    0.003724   0.000002   0.000007   0.000000
     9  C    0.000010   0.000000   0.000001   0.000000
    10  C    0.000000   0.000000   0.000000   0.000000
    11  C    0.000002   0.000000   0.000000   0.000000
    12  C    0.000000   0.000000   0.000000   0.000000
    13  C    0.000012   0.000000   0.000001   0.000000
    14  C    0.002245   0.000022  -0.000001   0.000000
    15  C    0.000062   0.000006   0.000001   0.000006
    16  C    0.000009   0.000000   0.000000   0.000000
    17  C   -0.000002   0.000000   0.000000   0.000000
    18  C   -0.038690  -0.040658  -0.036559   0.000000
    19  C   -0.000003   0.000000   0.000000  -0.000105
    20  C   -0.000098   0.001853  -0.000018  -0.000283
    21  C    0.000009  -0.000040   0.000001   0.012654
    22  C    0.362807   0.366383   0.350984   0.000000
    23  C    0.000000   0.000000   0.000000  -0.030793
    24  H   -0.000021   0.000000   0.000000   0.000000
    25  H    0.001302  -0.000002  -0.000007   0.000000
    26  H    0.000000   0.000000   0.000000   0.000000
    27  H    0.000000   0.000000   0.000000   0.000000
    28  H    0.000000   0.000000   0.000000   0.000000
    29  H    0.000000   0.000000   0.000000   0.000000
    30  H    0.000000   0.000000   0.000000   0.000000
    31  H    0.000000   0.000000   0.000000   0.000000
    32  H    0.000000   0.000000   0.000000   0.000000
    33  H    0.000000   0.000000   0.000000   0.000000
    34  H    0.003341  -0.002676  -0.000199   0.000000
    35  H   -0.002158   0.003082  -0.000052   0.000000
    36  H   -0.000004   0.000409  -0.000020  -0.000016
    37  H    0.505128  -0.025249  -0.023782   0.000000
    38  H   -0.025249   0.520648  -0.025613   0.000000
    39  H   -0.023782  -0.025613   0.535456   0.000000
    40  H    0.000000   0.000000   0.000000   0.411567
 Mulliken charges:
               1
     1  F   -0.285540
     2  O   -0.498062
     3  O   -0.540207
     4  O   -0.517473
     5  N   -0.648143
     6  N   -0.574876
     7  N   -0.784113
     8  N   -0.701075
     9  C   -0.163046
    10  C   -0.204223
    11  C   -0.220314
    12  C   -0.213026
    13  C    0.586705
    14  C    0.655549
    15  C   -0.097789
    16  C    0.257860
    17  C   -0.149186
    18  C   -0.207703
    19  C    0.388394
    20  C    0.212993
    21  C   -0.199794
    22  C   -0.556004
    23  C    0.656075
    24  H    0.200508
    25  H    0.215346
    26  H    0.223016
    27  H    0.205815
    28  H    0.171923
    29  H    0.199106
    30  H    0.200872
    31  H    0.174177
    32  H    0.276278
    33  H    0.248648
    34  H    0.212395
    35  H    0.244657
    36  H    0.255018
    37  H    0.213800
    38  H    0.202778
    39  H    0.197243
    40  H    0.361414
 Sum of Mulliken charges =   0.00000
 Mulliken charges with hydrogens summed into heavy atoms:
               1
     1  F   -0.285540
     2  O   -0.498062
     3  O   -0.178793
     4  O   -0.517473
     5  N   -0.648143
     6  N   -0.298597
     7  N   -0.784113
     8  N   -0.701075
     9  C    0.252807
    10  C    0.224608
    11  C    0.150716
    12  C    0.162023
    13  C    0.586705
    14  C    0.655549
    15  C   -0.097789
    16  C    0.257860
    17  C    0.099463
    18  C    0.249350
    19  C    0.388394
    20  C    0.468011
    21  C   -0.199794
    22  C    0.057817
    23  C    0.656075
 Electronic spatial extent (au):  <R**2>=           9138.6433
 Charge=              0.0000 electrons
 Dipole moment (field-independent basis, Debye):
    X=              5.5614    Y=              3.8379    Z=              0.6630  Tot=              6.7896
 Quadrupole moment (field-independent basis, Debye-Ang):
   XX=           -125.9235   YY=           -132.1059   ZZ=           -133.1499
   XY=             -4.1343   XZ=             -5.2821   YZ=             -3.3053
 Traceless Quadrupole moment (field-independent basis, Debye-Ang):
   XX=              4.4696   YY=             -1.7128   ZZ=             -2.7568
   XY=             -4.1343   XZ=             -5.2821   YZ=             -3.3053
 Octapole moment (field-independent basis, Debye-Ang**2):
  XXX=            118.1601  YYY=             30.1998  ZZZ=              0.1191  XYY=             25.1731
  XXY=            -33.9116  XXZ=             -3.4172  XZZ=             -9.5320  YZZ=             -6.5205
  YYZ=              6.0860  XYZ=            -10.0212
 Hexadecapole moment (field-independent basis, Debye-Ang**3):
 XXXX=          -7810.7235 YYYY=          -2165.6855 ZZZZ=           -290.6667 XXXY=            335.8961
 XXXZ=           -193.8971 YYYX=            -75.0393 YYYZ=             10.4967 ZZZX=             -8.9225
 ZZZY=             11.5797 XXYY=          -1987.4246 XXZZ=          -1568.8686 YYZZ=           -414.3348
 XXYZ=           -101.4989 YYXZ=            -19.5888 ZZXY=            -12.8427
 N-N= 1.951002474165D+03 E-N=-6.515840133243D+03  KE= 1.111107480144D+03
 PrsmSu:  requested number of processors reduced to:   9 ShMem   1 Linda.
 Calling FoFJK, ICntrl=      2127 FMM=F ISym2X=0 I1Cent= 0 IOpClX= 0 NMat=1 NMatS=1 NMatT=0.
 ***** Axes restored to original set *****
 -------------------------------------------------------------------
 Center     Atomic                   Forces (Hartrees/Bohr)
 Number     Number              X              Y              Z
 -------------------------------------------------------------------
      1        9          -0.007320917    0.002826321    0.002450931
      2        8          -0.000575170    0.004193640   -0.000011090
      3        8          -0.006035497    0.009447514   -0.000675441
      4        8          -0.001941443   -0.002399136    0.001428635
      5        7           0.006630451    0.004436172   -0.004576373
      6        7          -0.011345403   -0.006000559    0.005061682
      7        7          -0.000251961    0.005617329   -0.002283627
      8        7          -0.001635558    0.002875879   -0.001282487
      9        6           0.008563567   -0.014241420    0.002017283
     10        6           0.002189038    0.007881704    0.013770217
     11        6          -0.001610877   -0.008014035   -0.014036678
     12        6          -0.008073116    0.015454865   -0.000468550
     13        6           0.005031233    0.000458602   -0.000852314
     14        6           0.004454519    0.000786281    0.002013435
     15        6          -0.004042147   -0.002436729   -0.000523924
     16        6          -0.000988648    0.000030227   -0.003325065
     17        6           0.005796412   -0.000789276    0.000335026
     18        6          -0.004593346   -0.005522006    0.012911395
     19        6           0.005123142   -0.000764883    0.000896595
     20        6           0.012630694    0.002921161   -0.000697781
     21        6          -0.006397096   -0.007259747    0.002147189
     22        6          -0.001301162   -0.004738800   -0.009440522
     23        6          -0.011197729   -0.012338788   -0.004053992
     24        1          -0.001850262    0.001971428   -0.003275034
     25        1          -0.002830189    0.001338135    0.002652875
     26        1           0.000454351   -0.002896162   -0.003199611
     27        1          -0.001906498    0.001671180   -0.003525563
     28        1           0.001639959    0.000192000    0.002848775
     29        1           0.001137124    0.001548144    0.001372281
     30        1           0.002039197   -0.001409196   -0.003127865
     31        1           0.002083406   -0.002720621    0.003140369
     32        1           0.004464382    0.000496485    0.001593391
     33        1          -0.001007663   -0.006093379    0.001750591
     34        1          -0.001820130    0.000571650   -0.002160735
     35        1           0.001697003   -0.000441704   -0.003048857
     36        1          -0.000903667    0.006443082   -0.000669854
     37        1           0.001734421    0.000646322    0.002588579
     38        1          -0.001063570    0.001819066    0.001019706
[...]
     6  N   -0.000090   0.000000   0.000000  -0.000003   0.000000   0.000000
     7  N    0.002792   0.189880  -0.054398  -0.000275   0.004867   0.233213
     8  N    0.383031   0.404526  -0.053890  -0.030473  -0.037237   0.000077
     9  C   -0.058465   0.000358  -0.000038   0.001374  -0.000099  -0.000209
    10  C   -0.046965  -0.000086   0.000011  -0.001197  -0.000153   0.000000
    11  C    0.000129  -0.000015  -0.000001  -0.000130   0.000004   0.000009
    12  C    0.001284   0.000003  -0.000001   0.000294   0.000007   0.000000
    13  C    4.950394  -0.077496  -0.013896   0.129687  -0.123779  -0.000003
    14  C   -0.077496   4.850332   0.195052  -0.030518  -0.099964  -0.048296
    15  C   -0.013896   0.195052   6.250198  -0.025953   0.223217   0.002682
    16  C    0.129687  -0.030518  -0.025953   5.335078   0.214286   0.000013
    17  C   -0.123779  -0.099964   0.223217   0.214286   5.700025  -0.000089
    18  C   -0.000003  -0.048296   0.002682   0.000013  -0.000089   5.191679
    19  C   -0.000095   0.026236  -0.061629   0.008899  -0.072917  -0.000069
    20  C   -0.000053  -0.070700  -0.012830  -0.000015  -0.001056  -0.053661
    21  C   -0.000036  -0.027056  -0.172380   0.000034   0.015328   0.002197
    22  C   -0.000016  -0.002537  -0.000295  -0.000010   0.000007   0.268095
    23  C    0.000000  -0.000495   0.005946   0.000000  -0.000004  -0.000034
    24  H    0.003094  -0.000004   0.000001   0.000009   0.000000   0.000000
    25  H   -0.001965  -0.000177   0.000092   0.000740  -0.000019   0.000172
    26  H   -0.007810   0.000012  -0.000042  -0.001032   0.000833   0.000000
    27  H    0.001912   0.000001   0.000000   0.000185   0.000001   0.000000
    28  H    0.001861  -0.000017   0.000002  -0.000003  -0.000001  -0.000006
    29  H   -0.000011   0.000000   0.000000   0.000001   0.000000   0.000000
    30  H   -0.000022   0.000000   0.000000  -0.000008   0.000000   0.000000
    31  H    0.001155   0.000000   0.000000   0.000019  -0.000003   0.000000
    32  H    0.000000   0.000000   0.000000   0.000000   0.000000   0.000000
    33  H    0.004123   0.003534  -0.053344  -0.033647   0.367936   0.000000
    34  H   -0.000001   0.003607  -0.000019   0.000000   0.000001   0.367232
    35  H   -0.000125  -0.000896   0.000543   0.000023  -0.000009   0.365762
    36  H    0.000001   0.002735  -0.000528   0.000000   0.000001  -0.001629
    37  H    0.000163   0.002961   0.000159   0.000031  -0.000007  -0.039239
    38  H    0.000000   0.000140   0.000009   0.000000   0.000000  -0.040506
    39  H    0.000001   0.000035   0.000001   0.000000   0.000000  -0.036015
    40  H    0.000000   0.000000   0.000005   0.000000   0.000000   0.000000
              19         20         21         22         23         24
     1  F   -0.000003   0.000000   0.000000   0.000000   0.000000   0.000000
     2  O    0.643799   0.003275  -0.112177   0.000000  -0.003847   0.000000
     3  O    0.002509   0.003270  -0.093121   0.000000   0.222684   0.000000
     4  O    0.001927   0.003001  -0.114613   0.000000   0.518217   0.000000
     5  N    0.000000   0.000000   0.000000   0.000012   0.000000  -0.040728
     6  N    0.000000   0.000000   0.000000   0.000000   0.000000   0.004118
     7  N   -0.031048   0.244995  -0.018335  -0.052213   0.004665   0.000000
     8  N    0.003323   0.001606  -0.000380  -0.005293   0.000000   0.000452
     9  C    0.000000   0.000000   0.000000   0.000043   0.000000   0.352274
    10  C    0.000000   0.000000   0.000000   0.000000   0.000000  -0.003414
    11  C    0.000000   0.000000   0.000000  -0.000067   0.000000  -0.054947
    12  C    0.000000   0.000000   0.000000   0.000000   0.000000  -0.000673
    13  C   -0.000095  -0.000053  -0.000036  -0.000016   0.000000   0.003094
    14  C    0.026236  -0.070700  -0.027056  -0.002537  -0.000495  -0.000004
    15  C   -0.061629  -0.012830  -0.172380  -0.000295   0.005946   0.000001
    16  C    0.008899  -0.000015   0.000034  -0.000010   0.000000   0.000009
    17  C   -0.072917  -0.001056   0.015328   0.000007  -0.000004   0.000000
    18  C   -0.000069  -0.053661   0.002197   0.268095  -0.000034   0.000000
    19  C    5.225073  -0.025782  -0.072689   0.000003  -0.037656   0.000000
    20  C   -0.025782   5.106787   0.318255   0.000376  -0.096166   0.000000
    21  C   -0.072689   0.318255   6.462068  -0.000059   0.063067   0.000000
    22  C    0.000003   0.000376  -0.000059   5.371538   0.000002   0.000000
    23  C   -0.037656  -0.096166   0.063067   0.000002   4.689678   0.000000
    24  H    0.000000   0.000000   0.000000   0.000000   0.000000   0.528714
    25  H    0.000000   0.000000   0.000000  -0.000046   0.000000  -0.016752
    26  H    0.000000   0.000000   0.000000   0.000000   0.000000   0.000112
    27  H    0.000000   0.000000   0.000000   0.000000   0.000000   0.007078
    28  H    0.000000   0.000000   0.000000  -0.000025   0.000000   0.004912
    29  H    0.000000   0.000000   0.000000   0.000006   0.000000  -0.000824
    30  H    0.000000   0.000000   0.000000   0.000000   0.000000   0.000017
    31  H    0.000000   0.000000   0.000000   0.000000   0.000000   0.000234
    32  H    0.000000   0.000000   0.000000   0.000000   0.000000  -0.000122
    33  H    0.002234  -0.000053   0.001252   0.000000   0.000003   0.000000
    34  H   -0.000012  -0.001110   0.000387  -0.045097  -0.000010   0.000000
    35  H   -0.000003   0.002074  -0.000104  -0.047397   0.000001   0.000004
    36  H    0.002914   0.364349  -0.059296   0.000044   0.000566   0.000000
    37  H   -0.000005  -0.000122   0.000017   0.357475   0.000000   0.000003
    38  H   -0.000001   0.001929  -0.000063   0.365123   0.000000   0.000000
    39  H    0.000000  -0.000020   0.000000   0.351872   0.000000   0.000000
    40  H   -0.000065  -0.000290   0.011868   0.000000  -0.028746   0.000000
              25         26         27         28         29         30
     1  F   -0.000001   0.039946   0.000098   0.000000   0.000000  -0.000001
     2  O    0.000000   0.000000   0.000000   0.000000   0.000000   0.000000
     3  O    0.000000   0.000000   0.000000   0.000000   0.000000   0.000000
     4  O    0.000000   0.000000   0.000000   0.000000   0.000000   0.000000
     5  N   -0.032126  -0.025743  -0.040283  -0.001593   0.002676   0.002685
     6  N    0.001874   0.001673   0.004444  -0.045948  -0.030410  -0.030251
     7  N   -0.000171   0.000000   0.000000  -0.000001   0.000000   0.000000
     8  N    0.024853   0.000013  -0.000031   0.000325  -0.000011   0.000000
     9  C    0.347596   0.002429  -0.003264  -0.058786  -0.032036  -0.000057
    10  C    0.002594   0.319970   0.348266  -0.000336  -0.000076  -0.031074
    11  C   -0.035335  -0.000062  -0.000682   0.328582   0.362305   0.004121
    12  C   -0.000092  -0.032016  -0.057190  -0.005282   0.004086   0.361238
    13  C   -0.001965  -0.007810   0.001912   0.001861  -0.000011  -0.000022
    14  C   -0.000177   0.000012   0.000001  -0.000017   0.000000   0.000000
    15  C    0.000092  -0.000042   0.000000   0.000002   0.000000   0.000000
    16  C    0.000740  -0.001032   0.000185  -0.000003   0.000001  -0.000008
    17  C   -0.000019   0.000833   0.000001  -0.000001   0.000000   0.000000
    18  C    0.000172   0.000000   0.000000  -0.000006   0.000000   0.000000
    19  C    0.000000   0.000000   0.000000   0.000000   0.000000   0.000000
    20  C    0.000000   0.000000   0.000000   0.000000   0.000000   0.000000
    21  C    0.000000   0.000000   0.000000   0.000000   0.000000   0.000000
    22  C   -0.000046   0.000000   0.000000  -0.000025   0.000006   0.000000
    23  C    0.000000   0.000000   0.000000   0.000000   0.000000   0.000000
    24  H   -0.016752   0.000112   0.007078   0.004912  -0.000824   0.000017
    25  H    0.467883  -0.000056   0.000102   0.001575  -0.000601   0.000004
    26  H   -0.000056   0.479379  -0.015143   0.000066   0.000003  -0.000916
    27  H    0.000102  -0.015143   0.529821   0.000232   0.000024  -0.000563
    28  H    0.001575   0.000066   0.000232   0.621100  -0.033413  -0.000151
    29  H   -0.000601   0.000003   0.000024  -0.033413   0.532178  -0.000051
    30  H    0.000004  -0.000916  -0.000563  -0.000151  -0.000051   0.528235
    31  H    0.000069   0.001758   0.005056   0.010918  -0.000139  -0.033086
    32  H   -0.000085  -0.000080  -0.000150  -0.001106  -0.003616  -0.003576
    33  H    0.000000   0.000011   0.000000   0.000000   0.000000   0.000000
    34  H    0.000007   0.000000   0.000000   0.000000   0.000000   0.000000
    35  H    0.002560   0.000000   0.000000   0.000001   0.000001   0.000000
    36  H    0.000000   0.000000   0.000000   0.000000   0.000000   0.000000
    37  H    0.000681   0.000000   0.000000   0.001315  -0.000030   0.000000
    38  H    0.000001   0.000000   0.000000  -0.000001   0.000000   0.000000
    39  H    0.000021   0.000000   0.000000  -0.000003   0.000000   0.000000
    40  H    0.000000   0.000000   0.000000   0.000000   0.000000   0.000000
              31         32         33         34         35         36
     1  F    0.000028   0.000000  -0.001837   0.000000   0.000000   0.000000
     2  O    0.000000   0.000000   0.014676   0.000000   0.000000  -0.000002
     3  O    0.000000   0.000000   0.000000   0.000000   0.000000   0.000284
     4  O    0.000000   0.000000   0.000000  -0.000003   0.000000   0.022578
     5  N   -0.000164  -0.000150  -0.000013   0.000000  -0.000050   0.000000
     6  N   -0.046616   0.325952   0.000000   0.000000   0.000000   0.000000
     7  N    0.000000   0.000000  -0.000019  -0.032585  -0.034098  -0.033156
     8  N   -0.000047   0.000000  -0.000035   0.000351   0.010492  -0.000034
     9  C   -0.000342   0.004740   0.000000   0.000000  -0.000041   0.000000
    10  C   -0.059163   0.004689  -0.000001   0.000000   0.000000   0.000000
    11  C   -0.005211  -0.042011   0.000000   0.000000  -0.000013   0.000000
    12  C    0.327922  -0.041961   0.000000   0.000000   0.000000   0.000000
    13  C    0.001155   0.000000   0.004123  -0.000001  -0.000125   0.000001
    14  C    0.000000   0.000000   0.003534   0.003607  -0.000896   0.002735
    15  C    0.000000   0.000000  -0.053344  -0.000019   0.000543  -0.000528
    16  C    0.000019   0.000000  -0.033647   0.000000   0.000023   0.000000
    17  C   -0.000003   0.000000   0.367936   0.000001  -0.000009   0.000001
    18  C    0.000000   0.000000   0.000000   0.367232   0.365762  -0.001629
    19  C    0.000000   0.000000   0.002234  -0.000012  -0.000003   0.002914
    20  C    0.000000   0.000000  -0.000053  -0.001110   0.002074   0.364349
    21  C    0.000000   0.000000   0.001252   0.000387  -0.000104  -0.059296
    22  C    0.000000   0.000000   0.000000  -0.045097  -0.047397   0.000044
    23  C    0.000000   0.000000   0.000003  -0.000010   0.000001   0.000566
    24  H    0.000234  -0.000122   0.000000   0.000000   0.000004   0.000000
    25  H    0.000069  -0.000085   0.000000   0.000007   0.002560   0.000000
    26  H    0.001758  -0.000080   0.000011   0.000000   0.000000   0.000000
    27  H    0.005056  -0.000150   0.000000   0.000000   0.000000   0.000000
    28  H    0.010918  -0.001106   0.000000   0.000000   0.000001   0.000000
    29  H   -0.000139  -0.003616   0.000000   0.000000   0.000001   0.000000
    30  H   -0.033086  -0.003576   0.000000   0.000000   0.000000   0.000000
    31  H    0.625252  -0.001281   0.000000   0.000000   0.000000   0.000000
    32  H   -0.001281   0.482426   0.000000   0.000000   0.000000   0.000000
    33  H    0.000000   0.000000   0.446523   0.000000   0.000000   0.000000
    34  H    0.000000   0.000000   0.000000   0.513805  -0.023486   0.002631
    35  H    0.000000   0.000000   0.000000  -0.023486   0.482681   0.000070
    36  H    0.000000   0.000000   0.000000   0.002631   0.000070   0.440586
    37  H    0.000001   0.000000   0.000000   0.003289  -0.002897  -0.000001
    38  H    0.000000   0.000000   0.000000  -0.002171   0.003179   0.000225
    39  H    0.000000   0.000000   0.000000  -0.000566   0.000448  -0.000011
    40  H    0.000000   0.000000   0.000000   0.000000   0.000000  -0.000016
              37         38         39         40
     1  F    0.000000   0.000000   0.000000   0.000000
     2  O    0.000000   0.000000   0.000000   0.000200
     3  O    0.000000   0.000000   0.000000   0.237037
     4  O    0.000000   0.000000   0.000000   0.004466
     5  N   -0.000103   0.000000   0.000000   0.000000
     6  N   -0.000001   0.000000   0.000000   0.000000
     7  N   -0.003700  -0.000687   0.002549   0.000000
     8  N    0.009728   0.000021   0.000025   0.000000
     9  C   -0.000103   0.000000  -0.000007   0.000000
    10  C    0.000000   0.000000   0.000000   0.000000
    11  C    0.000161   0.000000   0.000002   0.000000
    12  C    0.000000   0.000000   0.000000   0.000000
    13  C    0.000163   0.000000   0.000001   0.000000
    14  C    0.002961   0.000140   0.000035   0.000000
    15  C    0.000159   0.000009   0.000001   0.000005
    16  C    0.000031   0.000000   0.000000   0.000000
    17  C   -0.000007   0.000000   0.000000   0.000000
    18  C   -0.039239  -0.040506  -0.036015   0.000000
    19  C   -0.000005  -0.000001   0.000000  -0.000065
    20  C   -0.000122   0.001929  -0.000020  -0.000290
    21  C    0.000017  -0.000063   0.000000   0.011868
    22  C    0.357475   0.365123   0.351872   0.000000
    23  C    0.000000   0.000000   0.000000  -0.028746
    24  H    0.000003   0.000000   0.000000   0.000000
    25  H    0.000681   0.000001   0.000021   0.000000
    26  H    0.000000   0.000000   0.000000   0.000000
    27  H    0.000000   0.000000   0.000000   0.000000
    28  H    0.001315  -0.000001  -0.000003   0.000000
    29  H   -0.000030   0.000000   0.000000   0.000000
    30  H    0.000000   0.000000   0.000000   0.000000
    31  H    0.000001   0.000000   0.000000   0.000000
    32  H    0.000000   0.000000   0.000000   0.000000
    33  H    0.000000   0.000000   0.000000   0.000000
    34  H    0.003289  -0.002171  -0.000566   0.000000
    35  H   -0.002897   0.003179   0.000448   0.000000
    36  H   -0.000001   0.000225  -0.000011  -0.000016
    37  H    0.499066  -0.024467  -0.023398   0.000000
    38  H   -0.024467   0.517450  -0.024236   0.000000
    39  H   -0.023398  -0.024236   0.535383   0.000000
    40  H    0.000000   0.000000   0.000000   0.416327
 Mulliken charges:
               1
     1  F   -0.280302
     2  O   -0.500586
     3  O   -0.540263
     4  O   -0.518702
     5  N   -0.671885
     6  N   -0.564080
     7  N   -0.783051
     8  N   -0.722259
     9  C   -0.200151
    10  C   -0.228625
    11  C   -0.224597
    12  C   -0.218745
    13  C    0.642347
    14  C    0.673027
    15  C   -0.103280
    16  C    0.227787
    17  C   -0.145249
    18  C   -0.211374
    19  C    0.385057
    20  C    0.211939
    21  C   -0.204165
    22  C   -0.561542
    23  C    0.662129
    24  H    0.216444
    25  H    0.236605
    26  H    0.236694
    27  H    0.220088
    28  H    0.175785
    29  H    0.199939
    30  H    0.203457
    31  H    0.173639
    32  H    0.276333
    33  H    0.248655
    34  H    0.213751
    35  H    0.241280
    36  H    0.257687
    37  H    0.219023
    38  H    0.204055
    39  H    0.193919
    40  H    0.359214
 Sum of Mulliken charges =   0.00000
 Mulliken charges with hydrogens summed into heavy atoms:
               1
     1  F   -0.280302
     2  O   -0.500586
     3  O   -0.181050
     4  O   -0.518702
     5  N   -0.671885
     6  N   -0.287747
     7  N   -0.783051
     8  N   -0.722259
     9  C    0.252897
    10  C    0.228157
    11  C    0.151127
    12  C    0.158352
    13  C    0.642347
    14  C    0.673027
    15  C   -0.103280
    16  C    0.227787
    17  C    0.103406
    18  C    0.243656
    19  C    0.385057
    20  C    0.469626
    21  C   -0.204165
    22  C    0.055456
    23  C    0.662129
 Electronic spatial extent (au):  <R**2>=           8717.0297
 Charge=              0.0000 electrons
 Dipole moment (field-independent basis, Debye):
    X=              5.5595    Y=              4.2649    Z=             -0.4049  Tot=              7.0187
 Quadrupole moment (field-independent basis, Debye-Ang):
   XX=           -131.4424   YY=           -131.9145   ZZ=           -131.2832
   XY=             -2.4816   XZ=             -6.3379   YZ=              0.0898
 Traceless Quadrupole moment (field-independent basis, Debye-Ang):
   XX=              0.1043   YY=             -0.3678   ZZ=              0.2635
   XY=             -2.4816   XZ=             -6.3379   YZ=              0.0898
 Octapole moment (field-independent basis, Debye-Ang**2):
  XXX=             29.3271  YYY=             31.2630  ZZZ=             -4.6752  XYY=             37.4857
  XXY=            -27.4253  XXZ=            -43.8481  XZZ=              4.5664  YZZ=             -2.6344
  YYZ=              5.3227  XYZ=             -2.0272
 Hexadecapole moment (field-independent basis, Debye-Ang**3):
 XXXX=          -7758.7148 YYYY=          -2193.3919 ZZZZ=           -342.4612 XXXY=            288.3090
 XXXZ=           -138.7959 YYYX=            -54.0936 YYYZ=             13.8213 ZZZX=              7.4420
 ZZZY=              2.4165 XXYY=          -1872.7548 XXZZ=          -1375.4352 YYZZ=           -426.7832
 XXYZ=            -28.8234 YYXZ=            -24.8475 ZZXY=              5.0413
 N-N= 1.966271325096D+03 E-N=-6.546376781153D+03  KE= 1.110967664707D+03
 1\1\GINC-NODE046\FOpt\RB3LYP\3-21G\C15H17F1N4O3\SUPERCOMPUTO1\06-Jul-2
 020\0\\# opt b3lyp/3-21g geom=connectivity\\Title Card Required\\0,1\F
 ,-9.8770609791,-3.9134550228,7.4033439047\O,-4.9362889038,-4.317801061
 ,6.6324296188\O,-2.5064060647,-5.5191403079,6.2959941432\O,-2.42209233
 65,-7.7994547316,6.2763667763\N,-10.820636402,-6.6809252862,7.45634248
 04\N,-13.1977636211,-7.5703203584,6.1963025209\N,-6.4531300523,-8.1769
 001977,6.8384751265\N,-8.6187148271,-7.3379949166,7.131075082\C,-11.22
 00320651,-8.1058171779,7.5277642759\C,-11.9866168827,-5.7720385937,7.3
 365624962\C,-12.0240934856,-8.4724409799,6.267029135\C,-12.7910729382,
 -6.151483658,6.0774634155\C,-9.5116757284,-6.331588522,7.2688845448\C,
 -7.3158063118,-7.0800384199,6.9602001714\C,-6.778953242,-5.7899181476,
 6.8923790906\C,-9.0213265965,-4.9875671013,7.234285972\C,-7.6923546866
 ,-4.7369995488,7.0401394294\C,-6.9975864982,-9.5628008209,6.867849759\
 C,-5.3448546544,-5.4946990044,6.6874275057\C,-5.1261391775,-7.95073104
 42,6.6498494113\C,-4.5416951651,-6.7154588636,6.5714892118\C,-7.597050
 3621,-9.9657012308,5.509476755\C,-3.0864740589,-6.75954728,6.371478574
 4\H,-11.8657095432,-8.2327788948,8.403385104\H,-10.3186078741,-8.70716
 68432,7.6152050241\H,-11.6460529898,-4.7452770732,7.2937182493\H,-12.6
 275696668,-5.9243254704,8.2117115461\H,-11.3523646036,-8.3885183932,5.
 3929897758\H,-12.3769417446,-9.505892783,6.3458493565\H,-13.6900147584
 ,-5.5288697588,6.023266031\H,-12.1623435597,-5.9483312105,5.1909849393
 \H,-13.8461541102,-7.8446029984,5.4528411009\H,-7.3132803246,-3.723583
 5178,7.0089646111\H,-6.170299631,-10.2214900129,7.1440415654\H,-7.7611
 60135,-9.5943447029,7.6456507779\H,-4.4861163693,-8.8206346682,6.56046
 71873\H,-8.4338527898,-9.3045861511,5.2722122871\H,-6.8434473148,-9.89
 28223917,4.719474976\H,-7.9602385263,-10.9981862661,5.5558221735\H,-1.
 5280210194,-5.6587665886,6.1618058938\\Version=ES64L-G09RevD.01\State=
 1-A\HF=-1120.1984823\RMSD=8.555e-09\RMSF=1.582e-05\Dipole=-2.1585302,-
 1.693006,-0.3155098\Quadrupole=0.5452295,-0.3724111,-0.1728184,-2.4902
 973,4.3853684,0.0780626\PG=C01 [X(C15H17F1N4O3)]\\@


 Age does not diminish the extreme disappointment of
 having a scoop of ice cream fall from the cone.
 -- Jim Fiebig
 Job cpu time:       0 days  1 hours 53 minutes 14.1 seconds.
 File lengths (MBytes):  RWF=     39 Int=      0 D2E=      0 Chk=      6 Scr=      1
 Normal termination of Gaussian 09 at Mon Jul  6 11:17:42 2020.
