 Entering Gaussian System, Link 0=g09
 Input=grepafloxacina.gjf
 Output=grepafloxacina.log
 Initial command:
 /usr/local/cluster_programs/g09/l1.exe "/tmp/scratch/64216.prometeo/Gau-27168.inp" -scrdir="/tmp/scratch/64216.prometeo/"
 Entering Link 1 = /usr/local/cluster_programs/g09/l1.exe PID=     27169.
  
 Copyright (c) 1988,1990,1992,1993,1995,1998,2003,2009,2013,
            Gaussian, Inc.  All Rights Reserved.
  
 This is part of the Gaussian(R) 09 program.  It is based on
 the Gaussian(R) 03 system (copyright 2003, Gaussian, Inc.),
 the Gaussian(R) 98 system (copyright 1998, Gaussian, Inc.),
 the Gaussian(R) 94 system (copyright 1995, Gaussian, Inc.),
 the Gaussian 92(TM) system (copyright 1992, Gaussian, Inc.),
 the Gaussian 90(TM) system (copyright 1990, Gaussian, Inc.),
 the Gaussian 88(TM) system (copyright 1988, Gaussian, Inc.),
 the Gaussian 86(TM) system (copyright 1986, Carnegie Mellon
 University), and the Gaussian 82(TM) system (copyright 1983,
 Carnegie Mellon University). Gaussian is a federally registered
 trademark of Gaussian, Inc.
  
 This software contains proprietary and confidential information,
 including trade secrets, belonging to Gaussian, Inc.
  
 This software is provided under written license and may be
 used, copied, transmitted, or stored only in accord with that
 written license.
  
 The following legend is applicable only to US Government
 contracts under FAR:
  
                    RESTRICTED RIGHTS LEGEND
  
 Use, reproduction and disclosure by the US Government is
 subject to restrictions as set forth in subparagraphs (a)
 and (c) of the Commercial Computer Software - Restricted
 Rights clause in FAR 52.227-19.
  
 Gaussian, Inc.
 340 Quinnipiac St., Bldg. 40, Wallingford CT 06492
  
  
 ---------------------------------------------------------------
 Warning -- This program may not be used in any manner that
 competes with the business of Gaussian, Inc. or will provide
 assistance to any competitor of Gaussian, Inc.  The licensee
 of this program is prohibited from giving any competitor of
 Gaussian, Inc. access to this program.  By using this program,
 the user acknowledges that Gaussian, Inc. is engaged in the
 business of creating and licensing software in the field of
 computational chemistry and represents and warrants to the
 licensee that it is not a competitor of Gaussian, Inc. and that
 it will not use this program in any manner prohibited above.
 ---------------------------------------------------------------
  

 Cite this work as:
 Gaussian 09, Revision D.01,
 M. J. Frisch, G. W. Trucks, H. B. Schlegel, G. E. Scuseria, 
 M. A. Robb, J. R. Cheeseman, G. Scalmani, V. Barone, B. Mennucci, 
 G. A. Petersson, H. Nakatsuji, M. Caricato, X. Li, H. P. Hratchian, 
 A. F. Izmaylov, J. Bloino, G. Zheng, J. L. Sonnenberg, M. Hada, 
 M. Ehara, K. Toyota, R. Fukuda, J. Hasegawa, M. Ishida, T. Nakajima, 
 Y. Honda, O. Kitao, H. Nakai, T. Vreven, J. A. Montgomery, Jr., 
 J. E. Peralta, F. Ogliaro, M. Bearpark, J. J. Heyd, E. Brothers, 
 K. N. Kudin, V. N. Staroverov, T. Keith, R. Kobayashi, J. Normand, 
 K. Raghavachari, A. Rendell, J. C. Burant, S. S. Iyengar, J. Tomasi, 
 M. Cossi, N. Rega, J. M. Millam, M. Klene, J. E. Knox, J. B. Cross, 
 V. Bakken, C. Adamo, J. Jaramillo, R. Gomperts, R. E. Stratmann, 
 O. Yazyev, A. J. Austin, R. Cammi, C. Pomelli, J. W. Ochterski, 
 R. L. Martin, K. Morokuma, V. G. Zakrzewski, G. A. Voth, 
 P. Salvador, J. J. Dannenberg, S. Dapprich, A. D. Daniels, 
 O. Farkas, J. B. Foresman, J. V. Ortiz, J. Cioslowski, 
 and D. J. Fox, Gaussian, Inc., Wallingford CT, 2013.
 
 ******************************************
 Gaussian 09:  ES64L-G09RevD.01 24-Apr-2013
                21-Jul-2020 
 ******************************************
 %nprocshared=20
 Will use up to   20 processors via shared memory.
 -----------------------------------------------------
 #opt M06/lanl2dz integral=ultrafine geom=connectivity
 -----------------------------------------------------
 1/14=-1,18=20,19=15,26=4,38=1,57=2/1,3;
 2/9=110,12=2,17=6,18=5,40=1/2;
 3/5=6,6=3,11=2,16=1,25=1,30=1,71=1,74=-54,75=-5/1,2,3;
 4//1;
 5/5=2,38=5/2;
 6/7=2,8=2,9=2,10=2,28=1/1;
 7//1,2,3,16;
 1/14=-1,18=20,19=15,26=4/3(2);
 2/9=110/2;
 99//99;
 2/9=110/2;
 3/5=6,6=3,11=2,16=1,25=1,30=1,71=1,74=-54,75=-5/1,2,3;
 4/5=5,16=3,69=1/1;
 5/5=2,38=5/2;
 7//1,2,3,16;
 1/14=-1,18=20,19=15,26=4/3(-5);
 2/9=110/2;
 6/7=2,8=2,9=2,10=2,19=2,28=1/1;
 99/9=1/99;
 -------------------
 Title Card Required
 -------------------
 Symbolic Z-matrix:
 Charge =  0 Multiplicity = 1
 C                    -1.25363   2.7712   -0.47468 
 C                    -0.45497   3.46571   0.62355 
 C                    -1.88966   3.88703   0.33755 
 H                    -2.06201   4.82643  -0.17257 
 H                    -2.63519   3.61579   1.07406 
 H                    -0.28447   2.89407   1.52686 
 H                     0.34948   4.12516   0.32042 
 H                    -0.98641   2.9906   -1.50337 
 N                     2.86058  -0.17983  -0.84944 
 C                     3.32536   1.13445  -1.33516 
 C                     3.90055   1.96338  -0.16927 
 N                     5.00791   1.17504   0.42248 
 C                     3.96737  -0.94127  -0.2153 
 C                     4.56119  -0.13688   0.9606 
 H                     5.51498   1.71123   1.13449 
 H                     2.51408   1.65422  -1.84779 
 H                     4.13869   0.95248  -2.04706 
 H                     4.759    -1.07981  -0.96134 
 H                     3.59969  -1.90598   0.11591 
 H                     3.77039  -0.02841   1.72647 
 H                     4.30524   2.90767  -0.54923 
 H                     3.08743   2.18521   0.54641 
 O                    -3.12684  -2.44737   0.29304 
 O                    -5.565    -1.34065   0.42774 
 O                    -5.71823   0.92653   0.25427 
 N                    -1.70581   1.40211  -0.25713 
 C                     0.56636   0.59185  -0.51833 
 C                    -0.78879   0.32707  -0.30391 
 C                    -1.26057  -0.99475  -0.1213 
 C                    -3.02894   1.1482   -0.08683 
 C                    -3.55594  -0.09533   0.0923 
 C                    -2.70235  -1.28748   0.10906 
 C                    -0.30565  -2.04548  -0.17474 
 C                     1.5217   -0.4314   -0.58535 
 C                     1.02126  -1.74543  -0.41506 
 C                    -5.01695  -0.09466   0.26081 
 H                    -3.70089   1.99597  -0.09629 
 C                    -0.67114  -3.51094  -0.01468 
 H                    -6.54943  -1.2125    0.52739 
 F                     1.92267  -2.7996   -0.50444 
 H                    -1.13974  -3.68437   0.95584 
 H                    -1.41008  -3.80612  -0.76205 
 H                     0.22754  -4.11829  -0.11381 
 C                     5.77092  -0.87036   1.55514 
 H                     6.54397  -0.97326   0.78721 
 H                     5.48261  -1.86279   1.91748 
 H                     6.18997  -0.30629   2.3969 
 H                     0.88613   1.61654  -0.59405 
 

 GradGradGradGradGradGradGradGradGradGradGradGradGradGradGradGradGradGrad
 Berny optimization.
 Initialization pass.
                           ----------------------------
                           !    Initial Parameters    !
                           ! (Angstroms and Degrees)  !
 --------------------------                            --------------------------
 ! Name  Definition              Value          Derivative Info.                !
 --------------------------------------------------------------------------------
 ! R1    R(1,2)                  1.5252         estimate D2E/DX2                !
 ! R2    R(1,3)                  1.5196         estimate D2E/DX2                !
 ! R3    R(1,8)                  1.0852         estimate D2E/DX2                !
 ! R4    R(1,26)                 1.4581         estimate D2E/DX2                !
 ! R5    R(2,3)                  1.5224         estimate D2E/DX2                !
 ! R6    R(2,6)                  1.0825         estimate D2E/DX2                !
 ! R7    R(2,7)                  1.0835         estimate D2E/DX2                !
 ! R8    R(3,4)                  1.0828         estimate D2E/DX2                !
 ! R9    R(3,5)                  1.0825         estimate D2E/DX2                !
 ! R10   R(9,10)                 1.4762         estimate D2E/DX2                !
 ! R11   R(9,13)                 1.4856         estimate D2E/DX2                !
 ! R12   R(9,34)                 1.3877         estimate D2E/DX2                !
 ! R13   R(10,11)                1.5418         estimate D2E/DX2                !
 ! R14   R(10,16)                1.0914         estimate D2E/DX2                !
 ! R15   R(10,17)                1.0961         estimate D2E/DX2                !
 ! R16   R(11,12)                1.4825         estimate D2E/DX2                !
 ! R17   R(11,21)                1.0954         estimate D2E/DX2                !
 ! R18   R(11,22)                1.1057         estimate D2E/DX2                !
 ! R19   R(12,14)                1.4867         estimate D2E/DX2                !
 ! R20   R(12,15)                1.0255         estimate D2E/DX2                !
 ! R21   R(13,14)                1.5435         estimate D2E/DX2                !
 ! R22   R(13,18)                1.0966         estimate D2E/DX2                !
 ! R23   R(13,19)                1.0842         estimate D2E/DX2                !
 ! R24   R(14,20)                1.1062         estimate D2E/DX2                !
 ! R25   R(14,44)                1.5346         estimate D2E/DX2                !
 ! R26   R(23,32)                1.2487         estimate D2E/DX2                !
 ! R27   R(24,36)                1.3714         estimate D2E/DX2                !
 ! R28   R(24,39)                0.9977         estimate D2E/DX2                !
 ! R29   R(25,36)                1.2388         estimate D2E/DX2                !
 ! R30   R(26,28)                1.4138         estimate D2E/DX2                !
 ! R31   R(26,30)                1.358          estimate D2E/DX2                !
 ! R32   R(27,28)                1.3973         estimate D2E/DX2                !
 ! R33   R(27,34)                1.4015         estimate D2E/DX2                !
 ! R34   R(27,48)                1.0761         estimate D2E/DX2                !
 ! R35   R(28,29)                1.4153         estimate D2E/DX2                !
 ! R36   R(29,32)                1.4891         estimate D2E/DX2                !
 ! R37   R(29,33)                1.4208         estimate D2E/DX2                !
 ! R38   R(30,31)                1.3624         estimate D2E/DX2                !
 ! R39   R(30,37)                1.0818         estimate D2E/DX2                !
 ! R40   R(31,32)                1.4663         estimate D2E/DX2                !
 ! R41   R(31,36)                1.4707         estimate D2E/DX2                !
 ! R42   R(33,35)                1.3815         estimate D2E/DX2                !
 ! R43   R(33,38)                1.5188         estimate D2E/DX2                !
 ! R44   R(34,35)                1.4164         estimate D2E/DX2                !
 ! R45   R(35,40)                1.3899         estimate D2E/DX2                !
 ! R46   R(38,41)                1.0916         estimate D2E/DX2                !
 ! R47   R(38,42)                1.0917         estimate D2E/DX2                !
 ! R48   R(38,43)                1.0892         estimate D2E/DX2                !
 ! R49   R(44,45)                1.0945         estimate D2E/DX2                !
 ! R50   R(44,46)                1.0951         estimate D2E/DX2                !
 ! R51   R(44,47)                1.0965         estimate D2E/DX2                !
 ! A1    A(2,1,8)              117.4856         estimate D2E/DX2                !
 ! A2    A(2,1,26)             118.8489         estimate D2E/DX2                !
 ! A3    A(3,1,8)              117.4674         estimate D2E/DX2                !
 ! A4    A(3,1,26)             118.6784         estimate D2E/DX2                !
 ! A5    A(8,1,26)             114.0539         estimate D2E/DX2                !
 ! A6    A(1,2,6)              116.2867         estimate D2E/DX2                !
 ! A7    A(1,2,7)              117.6771         estimate D2E/DX2                !
 ! A8    A(3,2,6)              116.8298         estimate D2E/DX2                !
 ! A9    A(3,2,7)              118.6012         estimate D2E/DX2                !
 ! A10   A(6,2,7)              115.9717         estimate D2E/DX2                !
 ! A11   A(1,3,4)              116.8628         estimate D2E/DX2                !
 ! A12   A(1,3,5)              117.899          estimate D2E/DX2                !
 ! A13   A(2,3,4)              118.5953         estimate D2E/DX2                !
 ! A14   A(2,3,5)              116.8643         estimate D2E/DX2                !
 ! A15   A(4,3,5)              115.3595         estimate D2E/DX2                !
 ! A16   A(10,9,13)            111.2356         estimate D2E/DX2                !
 ! A17   A(10,9,34)            121.8561         estimate D2E/DX2                !
 ! A18   A(13,9,34)            123.0028         estimate D2E/DX2                !
 ! A19   A(9,10,11)            110.3221         estimate D2E/DX2                !
 ! A20   A(9,10,16)            110.151          estimate D2E/DX2                !
 ! A21   A(9,10,17)            107.4283         estimate D2E/DX2                !
 ! A22   A(11,10,16)           112.114          estimate D2E/DX2                !
 ! A23   A(11,10,17)           107.672          estimate D2E/DX2                !
 ! A24   A(16,10,17)           109.0007         estimate D2E/DX2                !
 ! A25   A(10,11,12)           107.1329         estimate D2E/DX2                !
 ! A26   A(10,11,21)           109.8158         estimate D2E/DX2                !
 ! A27   A(10,11,22)           108.8419         estimate D2E/DX2                !
 ! A28   A(12,11,21)           108.718          estimate D2E/DX2                !
 ! A29   A(12,11,22)           113.4296         estimate D2E/DX2                !
 ! A30   A(21,11,22)           108.8604         estimate D2E/DX2                !
 ! A31   A(11,12,14)           112.9093         estimate D2E/DX2                !
 ! A32   A(11,12,15)           111.6198         estimate D2E/DX2                !
 ! A33   A(14,12,15)           111.0182         estimate D2E/DX2                !
 ! A34   A(9,13,14)            110.1642         estimate D2E/DX2                !
 ! A35   A(9,13,18)            108.192          estimate D2E/DX2                !
 ! A36   A(9,13,19)            109.4996         estimate D2E/DX2                !
 ! A37   A(14,13,18)           107.8435         estimate D2E/DX2                !
 ! A38   A(14,13,19)           111.1883         estimate D2E/DX2                !
 ! A39   A(18,13,19)           109.891          estimate D2E/DX2                !
 ! A40   A(12,14,13)           107.4412         estimate D2E/DX2                !
 ! A41   A(12,14,20)           112.2645         estimate D2E/DX2                !
 ! A42   A(12,14,44)           108.9738         estimate D2E/DX2                !
 ! A43   A(13,14,20)           107.6696         estimate D2E/DX2                !
 ! A44   A(13,14,44)           110.4474         estimate D2E/DX2                !
 ! A45   A(20,14,44)           110.0097         estimate D2E/DX2                !
 ! A46   A(36,24,39)           106.8441         estimate D2E/DX2                !
 ! A47   A(1,26,28)            120.5221         estimate D2E/DX2                !
 ! A48   A(1,26,30)            119.7628         estimate D2E/DX2                !
 ! A49   A(28,26,30)           119.6002         estimate D2E/DX2                !
 ! A50   A(28,27,34)           122.0102         estimate D2E/DX2                !
 ! A51   A(28,27,48)           118.648          estimate D2E/DX2                !
 ! A52   A(34,27,48)           119.2951         estimate D2E/DX2                !
 ! A53   A(26,28,27)           119.3429         estimate D2E/DX2                !
 ! A54   A(26,28,29)           119.3193         estimate D2E/DX2                !
 ! A55   A(27,28,29)           121.3356         estimate D2E/DX2                !
 ! A56   A(28,29,32)           121.7556         estimate D2E/DX2                !
 ! A57   A(28,29,33)           117.502          estimate D2E/DX2                !
 ! A58   A(32,29,33)           120.7409         estimate D2E/DX2                !
 ! A59   A(26,30,31)           124.3353         estimate D2E/DX2                !
 ! A60   A(26,30,37)           117.2302         estimate D2E/DX2                !
 ! A61   A(31,30,37)           118.4345         estimate D2E/DX2                !
 ! A62   A(30,31,32)           121.2248         estimate D2E/DX2                !
 ! A63   A(30,31,36)           113.5106         estimate D2E/DX2                !
 ! A64   A(32,31,36)           125.2645         estimate D2E/DX2                !
 ! A65   A(23,32,29)           122.3104         estimate D2E/DX2                !
 ! A66   A(23,32,31)           123.9845         estimate D2E/DX2                !
 ! A67   A(29,32,31)           113.7047         estimate D2E/DX2                !
 ! A68   A(29,33,35)           119.4368         estimate D2E/DX2                !
 ! A69   A(29,33,38)           123.2194         estimate D2E/DX2                !
 ! A70   A(35,33,38)           117.3249         estimate D2E/DX2                !
 ! A71   A(9,34,27)            122.3054         estimate D2E/DX2                !
 ! A72   A(9,34,35)            122.1383         estimate D2E/DX2                !
 ! A73   A(27,34,35)           115.516          estimate D2E/DX2                !
 ! A74   A(33,35,34)           124.1788         estimate D2E/DX2                !
 ! A75   A(33,35,40)           117.9947         estimate D2E/DX2                !
 ! A76   A(34,35,40)           117.8251         estimate D2E/DX2                !
 ! A77   A(24,36,25)           121.5578         estimate D2E/DX2                !
 ! A78   A(24,36,31)           114.2383         estimate D2E/DX2                !
 ! A79   A(25,36,31)           124.2038         estimate D2E/DX2                !
 ! A80   A(33,38,41)           110.5056         estimate D2E/DX2                !
 ! A81   A(33,38,42)           110.5877         estimate D2E/DX2                !
 ! A82   A(33,38,43)           109.2616         estimate D2E/DX2                !
 ! A83   A(41,38,42)           105.9709         estimate D2E/DX2                !
 ! A84   A(41,38,43)           110.2749         estimate D2E/DX2                !
 ! A85   A(42,38,43)           110.2069         estimate D2E/DX2                !
 ! A86   A(14,44,45)           109.2623         estimate D2E/DX2                !
 ! A87   A(14,44,46)           110.7194         estimate D2E/DX2                !
 ! A88   A(14,44,47)           110.659          estimate D2E/DX2                !
 ! A89   A(45,44,46)           109.4443         estimate D2E/DX2                !
 ! A90   A(45,44,47)           108.4857         estimate D2E/DX2                !
 ! A91   A(46,44,47)           108.2279         estimate D2E/DX2                !
 ! D1    D(8,1,2,6)           -145.3811         estimate D2E/DX2                !
 ! D2    D(8,1,2,7)             -1.2247         estimate D2E/DX2                !
 ! D3    D(26,1,2,6)            -1.1734         estimate D2E/DX2                !
 ! D4    D(26,1,2,7)           142.983          estimate D2E/DX2                !
 ! D5    D(8,1,3,4)              1.6667         estimate D2E/DX2                !
 ! D6    D(8,1,3,5)            145.9011         estimate D2E/DX2                !
 ! D7    D(26,1,3,4)          -142.2309         estimate D2E/DX2                !
 ! D8    D(26,1,3,5)             2.0036         estimate D2E/DX2                !
 ! D9    D(2,1,26,28)          -73.4744         estimate D2E/DX2                !
 ! D10   D(2,1,26,30)          110.4383         estimate D2E/DX2                !
 ! D11   D(3,1,26,28)         -143.0238         estimate D2E/DX2                !
 ! D12   D(3,1,26,30)           40.8888         estimate D2E/DX2                !
 ! D13   D(8,1,26,28)           71.9027         estimate D2E/DX2                !
 ! D14   D(8,1,26,30)         -104.1847         estimate D2E/DX2                !
 ! D15   D(6,2,3,4)            147.4369         estimate D2E/DX2                !
 ! D16   D(6,2,3,5)              2.0575         estimate D2E/DX2                !
 ! D17   D(7,2,3,4)              0.8476         estimate D2E/DX2                !
 ! D18   D(7,2,3,5)           -144.5318         estimate D2E/DX2                !
 ! D19   D(13,9,10,11)         -58.9414         estimate D2E/DX2                !
 ! D20   D(13,9,10,16)         176.7593         estimate D2E/DX2                !
 ! D21   D(13,9,10,17)          58.1592         estimate D2E/DX2                !
 ! D22   D(34,9,10,11)          99.4076         estimate D2E/DX2                !
 ! D23   D(34,9,10,16)         -24.8917         estimate D2E/DX2                !
 ! D24   D(34,9,10,17)        -143.4918         estimate D2E/DX2                !
 ! D25   D(10,9,13,14)          58.337          estimate D2E/DX2                !
 ! D26   D(10,9,13,18)         -59.3265         estimate D2E/DX2                !
 ! D27   D(10,9,13,19)        -179.0816         estimate D2E/DX2                !
 ! D28   D(34,9,13,14)         -99.7207         estimate D2E/DX2                !
 ! D29   D(34,9,13,18)         142.6159         estimate D2E/DX2                !
 ! D30   D(34,9,13,19)          22.8607         estimate D2E/DX2                !
 ! D31   D(10,9,34,27)         -12.1858         estimate D2E/DX2                !
 ! D32   D(10,9,34,35)         165.3992         estimate D2E/DX2                !
 ! D33   D(13,9,34,27)         143.6052         estimate D2E/DX2                !
 ! D34   D(13,9,34,35)         -38.8098         estimate D2E/DX2                !
 ! D35   D(9,10,11,12)          58.2257         estimate D2E/DX2                !
 ! D36   D(9,10,11,21)         176.1321         estimate D2E/DX2                !
 ! D37   D(9,10,11,22)         -64.7881         estimate D2E/DX2                !
 ! D38   D(16,10,11,12)       -178.6115         estimate D2E/DX2                !
 ! D39   D(16,10,11,21)        -60.7051         estimate D2E/DX2                !
 ! D40   D(16,10,11,22)         58.3747         estimate D2E/DX2                !
 ! D41   D(17,10,11,12)        -58.7239         estimate D2E/DX2                !
 ! D42   D(17,10,11,21)         59.1825         estimate D2E/DX2                !
 ! D43   D(17,10,11,22)        178.2624         estimate D2E/DX2                !
 ! D44   D(10,11,12,14)        -60.9452         estimate D2E/DX2                !
 ! D45   D(10,11,12,15)        173.1574         estimate D2E/DX2                !
 ! D46   D(21,11,12,14)       -179.5654         estimate D2E/DX2                !
 ! D47   D(21,11,12,15)         54.5372         estimate D2E/DX2                !
 ! D48   D(22,11,12,14)         59.1814         estimate D2E/DX2                !
 ! D49   D(22,11,12,15)        -66.7159         estimate D2E/DX2                !
 ! D50   D(11,12,14,13)         60.6295         estimate D2E/DX2                !
 ! D51   D(11,12,14,20)        -57.5612         estimate D2E/DX2                !
 ! D52   D(11,12,14,44)       -179.685          estimate D2E/DX2                !
 ! D53   D(15,12,14,13)       -173.1507         estimate D2E/DX2                !
 ! D54   D(15,12,14,20)         68.6586         estimate D2E/DX2                !
 ! D55   D(15,12,14,44)        -53.4652         estimate D2E/DX2                !
 ! D56   D(9,13,14,12)         -57.1141         estimate D2E/DX2                !
 ! D57   D(9,13,14,20)          64.0095         estimate D2E/DX2                !
 ! D58   D(9,13,14,44)        -175.8554         estimate D2E/DX2                !
 ! D59   D(18,13,14,12)         60.7647         estimate D2E/DX2                !
 ! D60   D(18,13,14,20)       -178.1117         estimate D2E/DX2                !
 ! D61   D(18,13,14,44)        -57.9767         estimate D2E/DX2                !
 ! D62   D(19,13,14,12)       -178.6966         estimate D2E/DX2                !
 ! D63   D(19,13,14,20)        -57.573          estimate D2E/DX2                !
 ! D64   D(19,13,14,44)         62.562          estimate D2E/DX2                !
 ! D65   D(12,14,44,45)        -56.672          estimate D2E/DX2                !
 ! D66   D(12,14,44,46)       -177.2824         estimate D2E/DX2                !
 ! D67   D(12,14,44,47)         62.7156         estimate D2E/DX2                !
 ! D68   D(13,14,44,45)         61.132          estimate D2E/DX2                !
 ! D69   D(13,14,44,46)        -59.4784         estimate D2E/DX2                !
 ! D70   D(13,14,44,47)       -179.4804         estimate D2E/DX2                !
 ! D71   D(20,14,44,45)        179.8515         estimate D2E/DX2                !
 ! D72   D(20,14,44,46)         59.241          estimate D2E/DX2                !
 ! D73   D(20,14,44,47)        -60.761          estimate D2E/DX2                !
 ! D74   D(39,24,36,25)          0.0618         estimate D2E/DX2                !
 ! D75   D(39,24,36,31)       -179.806          estimate D2E/DX2                !
 ! D76   D(1,26,28,27)           2.0531         estimate D2E/DX2                !
 ! D77   D(1,26,28,29)        -178.477          estimate D2E/DX2                !
 ! D78   D(30,26,28,27)        178.1468         estimate D2E/DX2                !
 ! D79   D(30,26,28,29)         -2.3833         estimate D2E/DX2                !
 ! D80   D(1,26,30,31)         178.4587         estimate D2E/DX2                !
 ! D81   D(1,26,30,37)          -1.4947         estimate D2E/DX2                !
 ! D82   D(28,26,30,31)          2.335          estimate D2E/DX2                !
 ! D83   D(28,26,30,37)       -177.6183         estimate D2E/DX2                !
 ! D84   D(34,27,28,26)       -179.4908         estimate D2E/DX2                !
 ! D85   D(34,27,28,29)          1.0503         estimate D2E/DX2                !
 ! D86   D(48,27,28,26)          3.0138         estimate D2E/DX2                !
 ! D87   D(48,27,28,29)       -176.4452         estimate D2E/DX2                !
 ! D88   D(28,27,34,9)         177.4455         estimate D2E/DX2                !
 ! D89   D(28,27,34,35)         -0.2885         estimate D2E/DX2                !
 ! D90   D(48,27,34,9)          -5.0748         estimate D2E/DX2                !
 ! D91   D(48,27,34,35)        177.1911         estimate D2E/DX2                !
 ! D92   D(26,28,29,32)          0.4844         estimate D2E/DX2                !
 ! D93   D(26,28,29,33)       -179.9513         estimate D2E/DX2                !
 ! D94   D(27,28,29,32)        179.9435         estimate D2E/DX2                !
 ! D95   D(27,28,29,33)         -0.4923         estimate D2E/DX2                !
 ! D96   D(28,29,32,23)       -178.8086         estimate D2E/DX2                !
 ! D97   D(28,29,32,31)          1.4197         estimate D2E/DX2                !
 ! D98   D(33,29,32,23)          1.6411         estimate D2E/DX2                !
 ! D99   D(33,29,32,31)       -178.1306         estimate D2E/DX2                !
 ! D100  D(28,29,33,35)         -0.7846         estimate D2E/DX2                !
 ! D101  D(28,29,33,38)       -179.1616         estimate D2E/DX2                !
 ! D102  D(32,29,33,35)        178.7843         estimate D2E/DX2                !
 ! D103  D(32,29,33,38)          0.4073         estimate D2E/DX2                !
 ! D104  D(26,30,31,32)         -0.2472         estimate D2E/DX2                !
 ! D105  D(26,30,31,36)        179.6704         estimate D2E/DX2                !
 ! D106  D(37,30,31,32)        179.7056         estimate D2E/DX2                !
 ! D107  D(37,30,31,36)         -0.3768         estimate D2E/DX2                !
 ! D108  D(30,31,32,23)        178.6564         estimate D2E/DX2                !
 ! D109  D(30,31,32,29)         -1.5763         estimate D2E/DX2                !
 ! D110  D(36,31,32,23)         -1.2511         estimate D2E/DX2                !
 ! D111  D(36,31,32,29)        178.5162         estimate D2E/DX2                !
 ! D112  D(30,31,36,24)        179.3267         estimate D2E/DX2                !
 ! D113  D(30,31,36,25)         -0.5371         estimate D2E/DX2                !
 ! D114  D(32,31,36,24)         -0.7596         estimate D2E/DX2                !
 ! D115  D(32,31,36,25)        179.3766         estimate D2E/DX2                !
 ! D116  D(29,33,35,34)          1.6178         estimate D2E/DX2                !
 ! D117  D(29,33,35,40)       -177.942          estimate D2E/DX2                !
 ! D118  D(38,33,35,34)       -179.9104         estimate D2E/DX2                !
 ! D119  D(38,33,35,40)          0.5297         estimate D2E/DX2                !
 ! D120  D(29,33,38,41)        -59.6124         estimate D2E/DX2                !
 ! D121  D(29,33,38,42)         57.4066         estimate D2E/DX2                !
 ! D122  D(29,33,38,43)        178.881          estimate D2E/DX2                !
 ! D123  D(35,33,38,41)        121.9785         estimate D2E/DX2                !
 ! D124  D(35,33,38,42)       -121.0024         estimate D2E/DX2                !
 ! D125  D(35,33,38,43)          0.472          estimate D2E/DX2                !
 ! D126  D(9,34,35,33)        -178.7998         estimate D2E/DX2                !
 ! D127  D(9,34,35,40)           0.7607         estimate D2E/DX2                !
 ! D128  D(27,34,35,33)         -1.0616         estimate D2E/DX2                !
 ! D129  D(27,34,35,40)        178.499          estimate D2E/DX2                !
 --------------------------------------------------------------------------------
 Trust Radius=3.00D-01 FncErr=1.00D-07 GrdErr=1.00D-06
 Number of steps in this run=    281 maximum allowed number of steps=    288.
 GradGradGradGradGradGradGradGradGradGradGradGradGradGradGradGradGradGrad

                          Input orientation:                          
 ---------------------------------------------------------------------
 Center     Atomic      Atomic             Coordinates (Angstroms)
 Number     Number       Type             X           Y           Z
 ---------------------------------------------------------------------
      1          6           0       -1.253632    2.771200   -0.474675
      2          6           0       -0.454973    3.465714    0.623545
      3          6           0       -1.889658    3.887030    0.337553
      4          1           0       -2.062014    4.826426   -0.172567
      5          1           0       -2.635189    3.615792    1.074061
      6          1           0       -0.284469    2.894067    1.526860
      7          1           0        0.349479    4.125164    0.320417
      8          1           0       -0.986410    2.990603   -1.503368
      9          7           0        2.860576   -0.179832   -0.849439
     10          6           0        3.325363    1.134455   -1.335158
     11          6           0        3.900553    1.963378   -0.169271
     12          7           0        5.007911    1.175037    0.422475
     13          6           0        3.967372   -0.941270   -0.215303
     14          6           0        4.561185   -0.136878    0.960597
     15          1           0        5.514984    1.711227    1.134491
     16          1           0        2.514077    1.654217   -1.847787
     17          1           0        4.138687    0.952481   -2.047062
     18          1           0        4.759004   -1.079815   -0.961337
     19          1           0        3.599691   -1.905979    0.115910
     20          1           0        3.770389   -0.028413    1.726466
     21          1           0        4.305239    2.907666   -0.549232
     22          1           0        3.087430    2.185207    0.546409
     23          8           0       -3.126835   -2.447370    0.293037
     24          8           0       -5.564999   -1.340646    0.427741
     25          8           0       -5.718232    0.926526    0.254273
     26          7           0       -1.705812    1.402110   -0.257134
     27          6           0        0.566359    0.591846   -0.518333
     28          6           0       -0.788786    0.327066   -0.303912
     29          6           0       -1.260565   -0.994745   -0.121304
     30          6           0       -3.028938    1.148198   -0.086830
     31          6           0       -3.555944   -0.095326    0.092297
     32          6           0       -2.702353   -1.287484    0.109061
     33          6           0       -0.305647   -2.045477   -0.174740
     34          6           0        1.521696   -0.431396   -0.585347
     35          6           0        1.021263   -1.745432   -0.415057
     36          6           0       -5.016947   -0.094655    0.260809
     37          1           0       -3.700894    1.995973   -0.096287
     38          6           0       -0.671140   -3.510938   -0.014678
     39          1           0       -6.549426   -1.212498    0.527392
     40          9           0        1.922671   -2.799597   -0.504444
     41          1           0       -1.139738   -3.684368    0.955842
     42          1           0       -1.410077   -3.806120   -0.762048
     43          1           0        0.227543   -4.118285   -0.113812
     44          6           0        5.770923   -0.870362    1.555143
     45          1           0        6.543968   -0.973263    0.787209
     46          1           0        5.482610   -1.862794    1.917482
     47          1           0        6.189966   -0.306291    2.396899
     48          1           0        0.886129    1.616535   -0.594053
 ---------------------------------------------------------------------
                    Distance matrix (angstroms):
                    1          2          3          4          5
     1  C    0.000000
     2  C    1.525219   0.000000
     3  C    1.519645   1.522373   0.000000
     4  H    2.229059   2.251202   1.082771   0.000000
     5  H    2.240674   2.231329   1.082511   1.829821   0.000000
     6  H    2.227221   1.082511   2.230932   3.127576   2.500360
     7  H    2.243960   1.083468   2.251829   2.559316   3.120205
     8  H    1.085244   2.243193   2.237952   2.509622   3.122895
     9  N    5.076982   5.143205   6.364985   7.053557   6.950543
    10  C    4.938275   4.854094   6.129525   6.633709   6.891266
    11  C    5.226038   4.675059   6.122406   6.614322   6.855091
    12  N    6.523767   5.927118   7.412056   7.979383   8.049772
    13  C    6.411598   6.299390   7.610712   8.343958   8.125459
    14  C    6.658004   6.184991   7.628460   8.353754   8.116847
    15  H    7.037551   6.243371   7.758734   8.296009   8.369967
    16  H    4.162778   4.266645   5.399449   5.814626   6.236979
    17  H    5.904002   5.877941   7.116102   7.547839   7.919598
    18  H    7.156741   7.096425   8.400082   9.057159   8.992534
    19  H    6.766058   6.749302   7.983798   8.801329   8.383420
    20  H    6.158217   5.592767   7.021104   7.822577   7.398466
    21  H    5.561046   4.934211   6.334216   6.660738   7.162825
    22  H    4.497868   3.767528   5.264145   5.831787   5.922276
    23  O    5.597477   6.497126   6.454240   7.366053   6.132997
    24  O    6.025738   7.017963   6.390998   7.117868   5.793772
    25  O    4.885370   5.855402   4.840403   5.362774   4.172452
    26  N    1.458149   2.568785   2.561695   3.443831   2.745216
    27  C    2.839693   3.256704   4.197952   4.995955   4.682935
    28  C    2.493799   3.289790   3.781103   4.677884   4.015437
    29  C    3.782494   4.593416   4.943484   5.876307   4.957372
    30  C    2.436446   3.535648   2.996541   3.804163   2.755309
    31  C    3.720090   4.751763   4.323866   5.150303   3.947664
    32  C    4.348845   5.282831   5.242926   6.153799   4.997785
    33  C    4.918233   5.570708   6.161670   7.092805   6.247899
    34  C    4.239259   4.533884   5.580133   6.376367   6.034323
    35  C    5.057536   5.514890   6.384709   7.263244   6.658066
    36  C    4.787129   5.798225   5.063560   5.756430   4.483477
    37  H    2.594850   3.635148   2.654221   3.271576   2.264786
    38  C    6.325832   7.009118   7.505917   8.454058   7.472156
    39  H    6.702195   7.683571   6.910475   7.556151   6.239590
    40  F    6.412766   6.795563   7.742983   8.610696   8.026393
    41  H    6.613147   7.190480   7.633527   8.634669   7.452697
    42  H    6.585453   7.464024   7.786121   8.677175   7.743189
    43  H    7.056140   7.650266   8.292849   9.233276   8.332000
    44  C    8.168568   7.644031   9.099440   9.838357   9.540426
    45  H    8.741620   8.289540   9.744264  10.422115  10.266384
    46  H    8.518995   8.082213   9.481930  10.297345   9.829798
    47  H    8.551260   7.843980   9.333015  10.051971   9.747615
    48  H    2.434354   2.588544   3.705136   4.378653   4.379419
                    6          7          8          9         10
     6  H    0.000000
     7  H    1.836571   0.000000
     8  H    3.111964   2.529431   0.000000
     9  N    4.998696   5.119293   5.027781   0.000000
    10  C    4.931356   4.532235   4.697336   1.476245   0.000000
    11  C    4.610580   4.186077   5.168889   2.477404   1.541833
    12  N    5.673096   5.514948   6.552636   2.839803   2.433493
    13  C    5.985240   6.248592   6.454355   1.485568   2.444358
    14  C    5.743487   6.026052   6.828475   2.483978   2.900696
    15  H    5.931839   5.759536   7.131846   3.815490   3.350563
    16  H    4.556021   3.936010   3.762707   2.116718   1.091387
    17  H    6.008909   5.479870   5.542216   2.085666   1.096092
    18  H    6.886181   6.941081   7.062003   2.103930   2.664219
    19  H    6.333871   6.854224   6.901514   2.111344   3.380103
    20  H    5.002260   5.561637   6.494107   2.736051   3.305125
    21  H    5.037436   4.229259   5.377621   3.421961   2.173043
    22  H    3.582383   3.363165   4.631028   2.755588   2.168176
    23  O    6.175137   7.435302   6.113922   6.503543   7.557205
    24  O    6.857467   8.054045   6.591842   8.600523   9.395343
    25  O    5.917472   6.859503   5.453426   8.719986   9.184560
    26  N    2.725580   3.460175   2.143350   4.868805   5.152329
    27  C    3.194831   3.637977   3.022486   2.443062   2.928093
    28  C    3.193048   4.013849   2.927828   3.724566   4.317588
    29  C    4.334982   5.385242   4.227087   4.263574   5.199776
    30  C    3.631000   4.521270   3.094020   6.085360   6.475774
    31  C    4.658003   5.754729   4.321066   6.485810   7.134590
    32  C    5.034053   6.217323   4.883279   5.752547   6.654691
    33  C    5.224460   6.225045   5.252694   3.736418   4.964149
    34  C    4.333861   4.791319   4.340903   1.387670   2.503462
    35  C    5.196242   5.954504   5.257870   2.454152   3.801212
    36  C    5.738614   6.827075   5.373673   7.955833   8.582072
    37  H    3.887562   4.594847   3.215212   6.953722   7.186467
    38  C    6.599238   7.711291   6.677247   4.926064   6.268603
    39  H    7.557281   8.725157   7.262038   9.566096  10.319338
    40  F    6.435485   7.148961   6.556449   2.803900   4.258450
    41  H    6.658330   7.975608   7.115227   5.616344   6.957504
    42  H    7.169282   8.195916   6.850145   5.603220   6.867469
    43  H    7.219906   8.255778   7.344443   4.794311   6.219281
    44  C    7.130182   7.474750   8.362003   3.837833   4.284145
    45  H    7.882314   8.036389   8.812807   4.107983   4.393897
    46  H    7.485954   8.047067   8.780996   4.166926   4.921065
    47  H    7.274446   7.619768   8.808063   4.651832   4.920361
    48  H    2.738733   2.723503   2.494257   2.681529   2.594513
                   11         12         13         14         15
    11  C    0.000000
    12  N    1.482527   0.000000
    13  C    2.905781   2.442998   0.000000
    14  C    2.474694   1.486694   1.543503   0.000000
    15  H    2.090398   1.025470   3.354517   2.086975   0.000000
    16  H    2.198934   3.406305   3.393173   3.909692   4.231155
    17  H    2.145861   2.627488   2.640262   3.226642   3.548545
    18  H    3.259652   2.657301   1.096559   2.149905   3.571263
    19  H    3.891500   3.401430   1.084230   2.183503   4.217823
    20  H    2.752815   2.163364   2.154664   1.106200   2.533850
    21  H    1.095363   2.107123   3.878140   3.407982   2.393715
    22  H    1.105701   2.173488   3.336070   2.781292   2.542345
    23  O    8.309790   8.905767   7.270111   8.055412   9.627202
    24  O   10.043389  10.868078   9.562380  10.211395  11.514315
    25  O    9.683774  10.730340   9.875226  10.358385  11.294941
    26  N    5.635075   6.751852   6.138257   6.567085   7.360168
    27  C    3.622126   4.577403   3.742881   4.321679   5.336078
    28  C    4.968455   5.903252   4.923166   5.516921   6.612293
    29  C    5.948944   6.655632   5.229055   5.983245   7.403200
    30  C    6.977762   8.053015   7.302790   7.769073   8.649117
    31  C    7.739898   8.663859   7.576973   8.163544   9.307606
    32  C    7.365049   8.100025   6.686577   7.403242   8.807293
    33  C    5.810600   6.241977   4.413571   5.349560   7.050295
    34  C    3.401033   3.968630   2.525517   3.422744   4.847167
    35  C    4.701701   5.012381   3.060414   4.124429   5.877339
    36  C    9.162002  10.106237   9.036671   9.603754  10.721292
    37  H    7.601867   8.762781   8.212421   8.598140   9.302059
    38  C    7.133892   7.375709   5.306528   6.301799   8.176780
    39  H   10.944112  11.801838  10.546478  11.170958  12.428464
    40  F    5.168200   5.116210   2.778090   4.024695   5.994861
    41  H    7.652937   7.854418   5.914283   6.714554   8.569112
    42  H    7.863923   8.210091   6.117455   7.217119   9.055079
    43  H    7.104977   7.152537   4.908161   5.982174   7.968595
    44  C    3.808145   2.459427   2.528300   1.534585   2.628128
    45  H    4.065262   2.666026   2.764941   2.158942   2.895842
    46  H    4.636489   3.418889   2.773792   2.177944   3.658927
    47  H    4.120441   2.736775   3.488083   2.178208   2.473793
    48  H    3.063901   4.268177   4.022422   4.358604   4.941976
                   16         17         18         19         20
    16  H    0.000000
    17  H    1.780871   0.000000
    18  H    3.646974   2.386172   0.000000
    19  H    4.208285   3.624880   1.785221   0.000000
    20  H    4.145461   3.916288   3.050752   2.479573   0.000000
    21  H    2.542762   2.468599   4.034320   4.910335   3.753056
    22  H    2.518503   3.057915   3.965832   4.145545   2.599823
    23  O    7.295617   8.356007   8.101242   6.750602   7.448340
    24  O    8.911717  10.273490  10.420298   9.187403   9.516203
    25  O    8.527550  10.122039  10.736647   9.739914   9.649518
    26  N    4.516769   6.128962   6.960582   6.263464   5.997486
    27  C    2.586443   3.902384   4.535303   3.980263   3.961017
    28  C    3.879921   5.264001   5.761033   4.941808   5.003486
    29  C    4.923989   6.054102   6.078495   4.950627   5.445966
    30  C    5.837983   7.433415   8.147444   7.301221   7.134655
    31  C    6.608327   8.054943   8.439059   7.381201   7.506673
    32  C    6.300318   7.514395   7.540605   6.332325   6.789525
    33  C    4.943447   5.678507   5.215547   3.918622   4.929219
    34  C    2.632177   3.301571   3.322947   2.642767   3.250153
    35  C    3.979802   4.434017   3.835645   2.637422   3.884838
    36  C    8.013804   9.499916   9.901182   8.806154   8.908974
    37  H    6.466097   8.145761   9.043155   8.280628   7.952398
    38  C    6.339142   6.869289   6.024366   4.564312   5.906500
    39  H    9.798297  11.204941  11.406775  10.181101  10.456501
    40  F    4.689434   4.622606   3.348311   1.998947   4.008801
    41  H    7.050616   7.640653   6.727141   5.131310   6.170026
    42  H    6.811248   7.421882   6.747593   5.429468   6.877572
    43  H    6.446448   6.689333   5.521299   4.039610   5.715368
    44  C    5.344200   4.354633   2.720390   2.803238   2.177238
    45  H    5.485151   4.186521   2.500972   3.160596   3.076960
    46  H    5.946327   5.044751   3.069896   2.606321   2.516573
    47  H    5.947530   5.053815   3.731453   3.804134   2.526074
    48  H    2.055112   3.623719   4.733325   4.502840   4.050879
                   21         22         23         24         25
    21  H    0.000000
    22  H    1.790373   0.000000
    23  O    9.198997   7.755131   0.000000
    24  O   10.790006   9.343995   2.680975   0.000000
    25  O   10.248927   8.899961   4.254411   2.278956   0.000000
    26  N    6.203608   4.922813   4.140108   4.783836   4.072743
    27  C    4.398091   3.166745   4.851272   6.497933   6.340742
    28  C    5.715660   4.381870   3.676998   5.111633   4.997035
    29  C    6.811028   5.427983   2.400992   4.353074   4.868587
    30  C    7.556434   6.235891   3.616904   3.590367   2.719888
    31  C    8.439652   7.038570   2.399279   2.387393   2.397062
    32  C    8.193838   6.765533   1.248746   2.880820   3.744122
    33  C    6.777473   5.470988   2.887808   5.340464   6.189744
    34  C    4.347269   3.252538   5.142426   7.216254   7.413870
    35  C    5.696826   4.543499   4.266243   6.652293   7.280670
    36  C    9.827169   8.423792   3.018084   1.371394   1.238812
    37  H    8.070595   6.821306   4.497156   3.857787   2.310035
    38  C    8.139323   6.847462   2.693753   5.371756   6.725813
    39  H   11.660130  10.218305   3.646088   0.997722   2.311039
    40  F    6.184779   5.225823   5.124212   7.685227   8.534814
    41  H    8.681471   7.244894   2.432700   5.035361   6.535683
    42  H    8.819583   7.604974   2.430363   4.975695   6.480050
    43  H    8.135182   6.953334   3.769527   6.446868   7.806270
    44  C    4.566193   4.189890   9.124142  11.401549  11.701357
    45  H    4.675424   4.688451   9.794980  12.119871  12.419934
    46  H    5.498015   4.899290   8.780837  11.159822  11.662137
    47  H    4.749885   4.388349   9.788424  11.963556  12.162067
    48  H    3.655043   2.543574   5.779804   7.169800   6.694278
                   26         27         28         29         30
    26  N    0.000000
    27  C    2.426420   0.000000
    28  C    1.413805   1.397320   0.000000
    29  C    2.441641   2.452051   1.415311   0.000000
    30  C    1.357990   3.663589   2.395759   2.778585   0.000000
    31  C    2.405703   4.223560   2.827112   2.474539   1.362415
    32  C    2.891558   3.822301   2.537530   1.489133   2.465274
    33  C    3.721976   2.798915   2.424679   1.420831   4.198047
    34  C    3.726429   1.401493   2.448019   2.876400   4.842717
    35  C    4.167601   2.383374   2.753884   2.420033   4.988482
    36  C    3.670448   5.679054   4.286503   3.881569   2.370172
    37  H    2.087797   4.512111   3.362846   3.860081   1.081821
    38  C    5.026666   4.314847   3.850685   2.586507   5.222257
    39  H    5.559879   7.415092   6.020490   5.332942   4.282988
    40  F    5.557103   3.652624   4.143457   3.679304   6.346489
    41  H    5.259659   4.834249   4.219212   2.899813   5.292441
    42  H    5.240998   4.827815   4.204654   2.887341   5.255654
    43  H    5.850911   4.739596   4.564012   3.459917   6.192030
    44  C    8.021848   5.790064   6.922406   7.229645   9.176503
    45  H    8.648232   6.315522   7.526665   7.857264   9.844037
    46  H    8.189137   6.010655   7.004319   7.097927   9.248232
    47  H    8.503284   6.397670   7.509894   7.894664   9.657776
    48  H    2.622528   1.076092   2.133601   3.413293   3.975470
                   31         32         33         34         35
    31  C    0.000000
    32  C    1.466335   0.000000
    33  C    3.799846   2.529683   0.000000
    34  C    5.133670   4.365510   2.472456   0.000000
    35  C    4.891940   3.788104   1.381474   1.416377   0.000000
    36  C    1.470689   2.608297   5.117788   6.601759   6.296177
    37  H    2.104782   3.438072   5.278937   5.779857   6.033116
    38  C    4.472130   3.014114   1.518809   3.823319   2.478214
    39  H    3.224642   3.870477   6.338109   8.184822   7.647716
    40  F    6.138762   4.904459   2.375458   2.403269   1.389889
    41  H    4.411914   2.983933   2.158677   4.476642   3.210726
    42  H    4.370886   2.961813   2.159759   4.473844   3.205971
    43  H    5.526432   4.080122   2.141153   3.935775   2.520153
    44  C    9.472647   8.605902   6.426359   4.778108   5.216005
    45  H   10.161786   9.276479   6.999444   5.234572   5.704556
    46  H    9.388861   8.402082   6.157490   4.899173   5.035686
    47  H   10.016909   9.234191   7.199381   5.540955   6.057534
    48  H    4.809736   4.669572   3.873821   2.144305   3.369440
                   36         37         38         39         40
    36  C    0.000000
    37  H    2.496045   0.000000
    38  C    5.534702   6.285868   0.000000
    39  H    1.915498   4.335596   6.334896   0.000000
    40  F    7.487364   7.401930   2.733813   8.681014   0.000000
    41  H    5.329340   6.319238   1.091591   5.963089   3.506224
    42  H    5.275483   6.273385   1.091660   5.899359   3.490939
    43  H    6.620771   7.267536   1.089187   7.401490   2.182886
    44  C   10.892895  10.032867   7.137027  12.367875   4.772095
    45  H   11.606197  10.702996   7.690293  13.098157   5.134223
    46  H   10.775508  10.162780   6.657196  12.129515   4.406415
    47  H   11.410634  10.456840   7.947342  12.907687   5.730984
    48  H    6.205261   4.629527   5.389967   8.034211   4.537033
                   41         42         43         44         45
    41  H    0.000000
    42  H    1.743288   0.000000
    43  H    1.789386   1.788702   0.000000
    44  C    7.485655   8.096593   6.638033   0.000000
    45  H    8.149716   8.584411   7.113384   1.094491   0.000000
    46  H    6.935299   7.646276   6.068700   1.095142   1.787530
    47  H    8.198330   8.943624   7.509025   1.096506   1.777996
    48  H    5.882677   5.891177   5.792454   5.887692   6.373859
                   46         47         48
    46  H    0.000000
    47  H    1.775639   0.000000
    48  H    6.288177   6.385432   0.000000
 Stoichiometry    C19H22FN3O3
 Framework group  C1[X(C19H22FN3O3)]
 Deg. of freedom   138
 Full point group                 C1      NOp   1
 Largest Abelian subgroup         C1      NOp   1
 Largest concise Abelian subgroup C1      NOp   1
                         Standard orientation:                         
 ---------------------------------------------------------------------
 Center     Atomic      Atomic             Coordinates (Angstroms)
 Number     Number       Type             X           Y           Z
 ---------------------------------------------------------------------
      1          6           0       -1.253632    2.771200   -0.474675
      2          6           0       -0.454973    3.465714    0.623545
      3          6           0       -1.889658    3.887030    0.337553
      4          1           0       -2.062014    4.826426   -0.172567
      5          1           0       -2.635189    3.615792    1.074061
      6          1           0       -0.284469    2.894067    1.526860
      7          1           0        0.349479    4.125164    0.320417
      8          1           0       -0.986410    2.990603   -1.503368
      9          7           0        2.860576   -0.179832   -0.849439
     10          6           0        3.325363    1.134455   -1.335158
     11          6           0        3.900553    1.963378   -0.169271
     12          7           0        5.007911    1.175037    0.422475
     13          6           0        3.967372   -0.941270   -0.215303
     14          6           0        4.561185   -0.136878    0.960597
     15          1           0        5.514984    1.711227    1.134491
     16          1           0        2.514077    1.654217   -1.847787
     17          1           0        4.138687    0.952481   -2.047062
     18          1           0        4.759004   -1.079815   -0.961337
     19          1           0        3.599691   -1.905979    0.115910
     20          1           0        3.770389   -0.028413    1.726466
     21          1           0        4.305239    2.907666   -0.549232
     22          1           0        3.087430    2.185207    0.546409
     23          8           0       -3.126835   -2.447370    0.293037
     24          8           0       -5.564999   -1.340646    0.427741
     25          8           0       -5.718232    0.926526    0.254273
     26          7           0       -1.705812    1.402110   -0.257134
     27          6           0        0.566359    0.591846   -0.518333
     28          6           0       -0.788786    0.327066   -0.303912
     29          6           0       -1.260565   -0.994745   -0.121304
     30          6           0       -3.028938    1.148198   -0.086830
     31          6           0       -3.555944   -0.095326    0.092297
     32          6           0       -2.702353   -1.287484    0.109061
     33          6           0       -0.305647   -2.045477   -0.174740
     34          6           0        1.521696   -0.431396   -0.585347
     35          6           0        1.021263   -1.745432   -0.415057
     36          6           0       -5.016947   -0.094655    0.260809
     37          1           0       -3.700894    1.995973   -0.096287
     38          6           0       -0.671140   -3.510938   -0.014678
     39          1           0       -6.549426   -1.212498    0.527392
     40          9           0        1.922671   -2.799597   -0.504444
     41          1           0       -1.139738   -3.684368    0.955842
     42          1           0       -1.410077   -3.806120   -0.762048
     43          1           0        0.227543   -4.118285   -0.113812
     44          6           0        5.770923   -0.870362    1.555143
     45          1           0        6.543968   -0.973263    0.787209
     46          1           0        5.482610   -1.862794    1.917482
     47          1           0        6.189966   -0.306291    2.396899
     48          1           0        0.886129    1.616535   -0.594053
 ---------------------------------------------------------------------
 Rotational constants (GHZ):      0.3569099      0.1217066      0.0955102
 Standard basis: LANL2DZ (5D, 7F)
 There are   278 symmetry adapted cartesian basis functions of A   symmetry.
 There are   278 symmetry adapted basis functions of A   symmetry.
   278 basis functions,   738 primitive gaussians,   278 cartesian basis functions
    95 alpha electrons       95 beta electrons
       nuclear repulsion energy      2392.2612860747 Hartrees.
 NAtoms=   48 NActive=   48 NUniq=   48 SFac= 1.00D+00 NAtFMM=   60 NAOKFM=F Big=F
 Integral buffers will be    131072 words long.
 Raffenetti 2 integral format.
 Two-electron integral symmetry is turned on.
 One-electron integrals computed using PRISM.
 PrsmSu:  requested number of processors reduced to:   8 ShMem   1 Linda.
   1 Symmetry operations used in ECPInt.
 ECPInt:  NShTT=   15225 NPrTT=  115275 LenC2=   13615 LenP2D=   56748.
 LDataN:  DoStor=T MaxTD1= 2 Len=   12
 Number of processors reduced to   8 by ecpmxn.
 NBasis=   278 RedAO= T EigKep=  1.27D-04  NBF=   278
 NBsUse=   278 1.00D-06 EigRej= -1.00D+00 NBFU=   278
 ExpMin= 1.15D-01 ExpMax= 1.00D+04 ExpMxC= 3.50D+02 IAcc=3 IRadAn=         5 AccDes= 0.00D+00
 Harris functional with IExCor= 1009 and IRadAn=       5 diagonalized for initial guess.
 HarFok:  IExCor= 1009 AccDes= 0.00D+00 IRadAn=         5 IDoV= 1 UseB2=F ITyADJ=14
 ICtDFT=  3500011 ScaDFX=  1.000000  1.000000  1.000000  1.000000
 FoFCou: FMM=F IPFlag=           0 FMFlag=      100000 FMFlg1=           0
         NFxFlg=           0 DoJE=T BraDBF=F KetDBF=T FulRan=T
         wScrn=  0.000000 ICntrl=     500 IOpCl=  0 I1Cent=   200000004 NGrid=           0
         NMat0=    1 NMatS0=      1 NMatT0=    0 NMatD0=    1 NMtDS0=    0 NMtDT0=    0
 Petite list used in FoFCou.
 Requested convergence on RMS density matrix=1.00D-08 within 128 cycles.
 Requested convergence on MAX density matrix=1.00D-06.
 Requested convergence on             energy=1.00D-06.
 No special actions if energy rises.
 Integral accuracy reduced to 1.0D-05 until final iterations.
 Initial convergence to 1.0D-05 achieved.  Increase integral accuracy.
 SCF Done:  E(RM06) =  -1226.06621980     A.U. after   17 cycles
            NFock= 17  Conv=0.95D-08     -V/T= 2.0049

 **********************************************************************

            Population analysis using the SCF density.

 **********************************************************************

 Orbital symmetries:
       Occupied  (A) (A) (A) (A) (A) (A) (A) (A) (A) (A) (A) (A)
                 (A) (A) (A) (A) (A) (A) (A) (A) (A) (A) (A) (A)
                 (A) (A) (A) (A) (A) (A) (A) (A) (A) (A) (A) (A)
                 (A) (A) (A) (A) (A) (A) (A) (A) (A) (A) (A) (A)
                 (A) (A) (A) (A) (A) (A) (A) (A) (A) (A) (A) (A)
                 (A) (A) (A) (A) (A) (A) (A) (A) (A) (A) (A) (A)
                 (A) (A) (A) (A) (A) (A) (A) (A) (A) (A) (A) (A)
                 (A) (A) (A) (A) (A) (A) (A) (A) (A) (A) (A)
       Virtual   (A) (A) (A) (A) (A) (A) (A) (A) (A) (A) (A) (A)
                 (A) (A) (A) (A) (A) (A) (A) (A) (A) (A) (A) (A)
                 (A) (A) (A) (A) (A) (A) (A) (A) (A) (A) (A) (A)
                 (A) (A) (A) (A) (A) (A) (A) (A) (A) (A) (A) (A)
                 (A) (A) (A) (A) (A) (A) (A) (A) (A) (A) (A) (A)
                 (A) (A) (A) (A) (A) (A) (A) (A) (A) (A) (A) (A)
                 (A) (A) (A) (A) (A) (A) (A) (A) (A) (A) (A) (A)
                 (A) (A) (A) (A) (A) (A) (A) (A) (A) (A) (A) (A)
                 (A) (A) (A) (A) (A) (A) (A) (A) (A) (A) (A) (A)
                 (A) (A) (A) (A) (A) (A) (A) (A) (A) (A) (A) (A)
                 (A) (A) (A) (A) (A) (A) (A) (A) (A) (A) (A) (A)
                 (A) (A) (A) (A) (A) (A) (A) (A) (A) (A) (A) (A)
                 (A) (A) (A) (A) (A) (A) (A) (A) (A) (A) (A) (A)
                 (A) (A) (A) (A) (A) (A) (A) (A) (A) (A) (A) (A)
                 (A) (A) (A) (A) (A) (A) (A) (A) (A) (A) (A) (A)
                 (A) (A) (A)
 The electronic state is 1-A.
 Alpha  occ. eigenvalues --  -24.79785 -19.25637 -19.21106 -19.17968 -14.48187
 Alpha  occ. eigenvalues --  -14.42984 -14.39763 -10.39658 -10.33888 -10.33664
 Alpha  occ. eigenvalues --  -10.33031 -10.32826 -10.32650 -10.32616 -10.29559
 Alpha  occ. eigenvalues --  -10.29137 -10.29058 -10.28585 -10.28480 -10.28419
 Alpha  occ. eigenvalues --  -10.28260 -10.26887 -10.26619 -10.26423 -10.24401
 Alpha  occ. eigenvalues --  -10.22188  -1.25274  -1.12895  -1.04170  -1.03933
 Alpha  occ. eigenvalues --   -1.02831  -0.98352  -0.92545  -0.90747  -0.88063
 Alpha  occ. eigenvalues --   -0.83102  -0.80537  -0.79672  -0.79056  -0.73532
 Alpha  occ. eigenvalues --   -0.71513  -0.70506  -0.69234  -0.67031  -0.65979
 Alpha  occ. eigenvalues --   -0.64690  -0.63710  -0.62461  -0.59952  -0.59445
 Alpha  occ. eigenvalues --   -0.57472  -0.56577  -0.55869  -0.53919  -0.52971
 Alpha  occ. eigenvalues --   -0.51980  -0.50191  -0.49592  -0.49113  -0.48806
 Alpha  occ. eigenvalues --   -0.48425  -0.47727  -0.47084  -0.46834  -0.46595
 Alpha  occ. eigenvalues --   -0.45161  -0.44635  -0.44058  -0.43561  -0.43237
 Alpha  occ. eigenvalues --   -0.42010  -0.41239  -0.41099  -0.41015  -0.40482
 Alpha  occ. eigenvalues --   -0.40067  -0.39514  -0.38973  -0.38310  -0.38081
 Alpha  occ. eigenvalues --   -0.37563  -0.36775  -0.36530  -0.36358  -0.35115
 Alpha  occ. eigenvalues --   -0.34798  -0.33958  -0.32268  -0.30732  -0.28740
 Alpha  occ. eigenvalues --   -0.27745  -0.24669  -0.23648  -0.23396  -0.21675
 Alpha virt. eigenvalues --   -0.04762  -0.03543   0.00638   0.03314   0.07012
 Alpha virt. eigenvalues --    0.08456   0.09196   0.09712   0.10070   0.10478
 Alpha virt. eigenvalues --    0.10686   0.11769   0.12130   0.12515   0.12930
 Alpha virt. eigenvalues --    0.13297   0.13801   0.15110   0.15806   0.16473
 Alpha virt. eigenvalues --    0.16660   0.17076   0.17617   0.18317   0.18768
 Alpha virt. eigenvalues --    0.18983   0.19310   0.19597   0.20107   0.20407
 Alpha virt. eigenvalues --    0.21167   0.21772   0.21957   0.22090   0.22511
 Alpha virt. eigenvalues --    0.23062   0.23519   0.23771   0.24152   0.24493
 Alpha virt. eigenvalues --    0.24770   0.25414   0.25493   0.26399   0.26589
 Alpha virt. eigenvalues --    0.27121   0.27907   0.28206   0.28935   0.29153
 Alpha virt. eigenvalues --    0.29596   0.29921   0.30529   0.30992   0.31189
 Alpha virt. eigenvalues --    0.31736   0.32453   0.32670   0.33245   0.33440
 Alpha virt. eigenvalues --    0.33632   0.34804   0.35073   0.35366   0.35619
 Alpha virt. eigenvalues --    0.36422   0.36442   0.37546   0.37947   0.38514
 Alpha virt. eigenvalues --    0.39008   0.39798   0.40383   0.40689   0.41354
 Alpha virt. eigenvalues --    0.41377   0.42250   0.43122   0.43417   0.44323
 Alpha virt. eigenvalues --    0.45449   0.45539   0.46009   0.46485   0.47190
 Alpha virt. eigenvalues --    0.47271   0.47846   0.48653   0.49047   0.49474
 Alpha virt. eigenvalues --    0.50777   0.51535   0.52178   0.52327   0.53811
 Alpha virt. eigenvalues --    0.54529   0.55015   0.55842   0.57805   0.58940
 Alpha virt. eigenvalues --    0.60588   0.61219   0.61807   0.62103   0.63247
 Alpha virt. eigenvalues --    0.64305   0.65235   0.67148   0.68689   0.70123
 Alpha virt. eigenvalues --    0.70609   0.71099   0.72241   0.73963   0.75474
 Alpha virt. eigenvalues --    0.76257   0.78277   0.79295   0.82806   0.84392
 Alpha virt. eigenvalues --    0.85965   0.87629   0.87955   0.88775   0.89963
 Alpha virt. eigenvalues --    0.90733   0.91619   0.93313   0.94486   0.96538
 Alpha virt. eigenvalues --    0.97722   0.99367   1.00622   1.01728   1.02286
 Alpha virt. eigenvalues --    1.02736   1.02998   1.05256   1.05453   1.06235
 Alpha virt. eigenvalues --    1.08243   1.09163   1.10013   1.10330   1.10878
 Alpha virt. eigenvalues --    1.11675   1.11993   1.13689   1.14341   1.14842
 Alpha virt. eigenvalues --    1.15630   1.17098   1.17552   1.19688   1.20938
 Alpha virt. eigenvalues --    1.24082   1.24455   1.25248   1.27410   1.28322
 Alpha virt. eigenvalues --    1.28722   1.31149   1.33028   1.35207   1.36377
 Alpha virt. eigenvalues --    1.40539   1.42290   1.45414   1.45870   1.50123
 Alpha virt. eigenvalues --    1.52298   1.54567   1.57211   1.60488   1.65668
 Alpha virt. eigenvalues --    1.70982   1.74362   1.79520   1.86889   1.89452
 Alpha virt. eigenvalues --    2.01854   2.02647   2.22330
          Condensed to atoms (all electrons):
               1          2          3          4          5          6
     1  C    5.330782   0.146371   0.151048  -0.012083  -0.020670  -0.017512
     2  C    0.146371   5.567577   0.129361  -0.009802  -0.021194   0.387535
     3  C    0.151048   0.129361   5.578117   0.341064   0.389997  -0.024499
     4  H   -0.012083  -0.009802   0.341064   0.438768  -0.009190   0.001021
     5  H   -0.020670  -0.021194   0.389997  -0.009190   0.417421  -0.003254
     6  H   -0.017512   0.387535  -0.024499   0.001021  -0.003254   0.416396
     7  H   -0.015538   0.348133  -0.012988  -0.004412   0.000816  -0.009372
     8  H    0.364915  -0.025102  -0.030607  -0.000385   0.000623   0.001379
     9  N   -0.000011  -0.000074   0.000001   0.000000   0.000000   0.000005
    10  C   -0.000162  -0.000326   0.000005   0.000000   0.000000  -0.000021
    11  C   -0.000066   0.000569  -0.000010   0.000000   0.000000   0.000004
    12  N    0.000001  -0.000031   0.000000   0.000000   0.000000   0.000000
    13  C    0.000002   0.000006   0.000000   0.000000   0.000000   0.000000
    14  C   -0.000008  -0.000006   0.000000   0.000000   0.000000   0.000001
    15  H    0.000000   0.000000   0.000000   0.000000   0.000000   0.000000
    16  H    0.000323   0.000024  -0.000002   0.000000   0.000000   0.000002
    17  H    0.000004   0.000001   0.000000   0.000000   0.000000   0.000000
    18  H    0.000000   0.000000   0.000000   0.000000   0.000000   0.000000
    19  H    0.000000   0.000000   0.000000   0.000000   0.000000   0.000000
    20  H    0.000001   0.000019   0.000000   0.000000   0.000000  -0.000001
    21  H    0.000003  -0.000024   0.000000   0.000000   0.000000   0.000000
    22  H   -0.000035   0.001119   0.000030   0.000000   0.000000  -0.000013
    23  O    0.000002   0.000000   0.000000   0.000000   0.000000   0.000000
    24  O    0.000004   0.000000  -0.000002   0.000000   0.000000   0.000000
    25  O    0.000286   0.000002   0.000001   0.000001   0.000032   0.000000
    26  N    0.287115  -0.034886  -0.019727   0.000655  -0.007001  -0.002270
    27  C    0.001544   0.008319  -0.006706   0.000169   0.000216  -0.001853
    28  C   -0.028596  -0.012463   0.003376  -0.000112  -0.000302   0.001688
    29  C    0.011282  -0.001599   0.000671  -0.000014  -0.000111   0.000095
    30  C   -0.064157  -0.008920   0.014400   0.000179   0.001994   0.000731
    31  C    0.003935  -0.001267   0.001040  -0.000020   0.000702  -0.000034
    32  C    0.000616   0.000105  -0.000050   0.000000   0.000035  -0.000014
    33  C    0.001116  -0.000227   0.000066   0.000000  -0.000001   0.000020
    34  C   -0.002648   0.003073  -0.000710   0.000006   0.000004   0.000216
    35  C   -0.000031   0.000128  -0.000013   0.000000   0.000000   0.000001
    36  C    0.000037   0.000028   0.000065   0.000001   0.000087   0.000000
    37  H    0.002126  -0.000212   0.002564   0.000090  -0.000434   0.000112
    38  C    0.000010  -0.000002   0.000000   0.000000   0.000000   0.000000
    39  H    0.000000   0.000000   0.000000   0.000000   0.000000   0.000000
    40  F   -0.000001   0.000000   0.000000   0.000000   0.000000   0.000000
    41  H    0.000000   0.000000   0.000000   0.000000   0.000000   0.000000
    42  H    0.000000   0.000000   0.000000   0.000000   0.000000   0.000000
    43  H    0.000000   0.000000   0.000000   0.000000   0.000000   0.000000
    44  C    0.000000   0.000000   0.000000   0.000000   0.000000   0.000000
    45  H    0.000000   0.000000   0.000000   0.000000   0.000000   0.000000
    46  H    0.000000   0.000000   0.000000   0.000000   0.000000   0.000000
    47  H    0.000000   0.000000   0.000000   0.000000   0.000000   0.000000
    48  H    0.016758   0.002083   0.000322   0.000010   0.000002  -0.001016
               7          8          9         10         11         12
     1  C   -0.015538   0.364915  -0.000011  -0.000162  -0.000066   0.000001
     2  C    0.348133  -0.025102  -0.000074  -0.000326   0.000569  -0.000031
     3  C   -0.012988  -0.030607   0.000001   0.000005  -0.000010   0.000000
     4  H   -0.004412  -0.000385   0.000000   0.000000   0.000000   0.000000
     5  H    0.000816   0.000623   0.000000   0.000000   0.000000   0.000000
     6  H   -0.009372   0.001379   0.000005  -0.000021   0.000004   0.000000
     7  H    0.440523  -0.002371   0.000006  -0.000035   0.000128   0.000001
     8  H   -0.002371   0.446242   0.000003  -0.000002   0.000009   0.000000
     9  N    0.000006   0.000003   6.888257   0.307523  -0.071070  -0.013918
    10  C   -0.000035  -0.000002   0.307523   5.391549   0.242918  -0.066982
    11  C    0.000128   0.000009  -0.071070   0.242918   5.394703   0.312377
    12  N    0.000001   0.000000  -0.013918  -0.066982   0.312377   6.829674
    13  C    0.000000   0.000000   0.258377  -0.049185   0.008701  -0.060554
    14  C    0.000001   0.000000  -0.063059  -0.007599  -0.073060   0.303671
    15  H    0.000000   0.000000  -0.000652   0.005301  -0.040124   0.317544
    16  H    0.000013   0.000017  -0.031949   0.339815  -0.034150   0.003579
    17  H    0.000000   0.000000  -0.048353   0.354813  -0.046771   0.002780
    18  H    0.000000   0.000000  -0.049300  -0.003883  -0.004738  -0.001817
    19  H    0.000000   0.000000  -0.033734   0.006621  -0.000594   0.003538
    20  H    0.000000   0.000000   0.002063  -0.000678  -0.005616  -0.082276
    21  H   -0.000002   0.000000   0.005475  -0.016589   0.351089  -0.037412
    22  H   -0.000060   0.000001  -0.005663  -0.055922   0.352095  -0.065710
    23  O    0.000000   0.000000   0.000000   0.000000   0.000000   0.000000
    24  O    0.000000   0.000000   0.000000   0.000000   0.000000   0.000000
    25  O    0.000000  -0.000001   0.000000   0.000000   0.000000   0.000000
    26  N    0.000712  -0.033914   0.000025   0.000045  -0.000010   0.000000
    27  C   -0.000908   0.003576  -0.085959   0.026206   0.000938  -0.000451
    28  C    0.001970   0.000495  -0.011961  -0.000896   0.000486  -0.000064
    29  C    0.000064  -0.000302   0.004809  -0.000344   0.000084  -0.000002
    30  C    0.000071   0.000024  -0.000008   0.000019  -0.000002   0.000000
    31  C    0.000008   0.000238  -0.000003   0.000002   0.000000   0.000000
    32  C    0.000000  -0.000008   0.000090  -0.000022   0.000002   0.000000
    33  C    0.000003  -0.000030   0.010917   0.000831  -0.000027   0.000001
    34  C   -0.000409   0.000746   0.139735  -0.093400  -0.017416  -0.001334
    35  C   -0.000012   0.000007   0.029768   0.005316  -0.001489   0.000011
    36  C    0.000000   0.000001   0.000000   0.000000   0.000000   0.000000
    37  H   -0.000013   0.000443   0.000000   0.000000   0.000000   0.000000
    38  C    0.000000   0.000000  -0.000477  -0.000001   0.000000   0.000000
    39  H    0.000000   0.000000   0.000000   0.000000   0.000000   0.000000
    40  F    0.000000   0.000000   0.005290  -0.000191   0.000004  -0.000004
    41  H    0.000000   0.000000   0.000001   0.000000   0.000000   0.000000
    42  H    0.000000   0.000000   0.000002   0.000000   0.000000   0.000000
    43  H    0.000000   0.000000  -0.000017   0.000000   0.000000   0.000000
    44  C    0.000000   0.000000   0.007849  -0.002763   0.008608  -0.054819
    45  H    0.000000   0.000000   0.000021  -0.000048   0.000335   0.001569
    46  H    0.000000   0.000000   0.000011   0.000130  -0.000318   0.003411
    47  H    0.000000   0.000000  -0.000148   0.000019  -0.000080  -0.004365
    48  H   -0.000020  -0.002335  -0.005940   0.005230  -0.003129  -0.000008
              13         14         15         16         17         18
     1  C    0.000002  -0.000008   0.000000   0.000323   0.000004   0.000000
     2  C    0.000006  -0.000006   0.000000   0.000024   0.000001   0.000000
     3  C    0.000000   0.000000   0.000000  -0.000002   0.000000   0.000000
     4  H    0.000000   0.000000   0.000000   0.000000   0.000000   0.000000
     5  H    0.000000   0.000000   0.000000   0.000000   0.000000   0.000000
     6  H    0.000000   0.000001   0.000000   0.000002   0.000000   0.000000
     7  H    0.000000   0.000001   0.000000   0.000013   0.000000   0.000000
     8  H    0.000000   0.000000   0.000000   0.000017   0.000000   0.000000
     9  N    0.258377  -0.063059  -0.000652  -0.031949  -0.048353  -0.049300
    10  C   -0.049185  -0.007599   0.005301   0.339815   0.354813  -0.003883
    11  C    0.008701  -0.073060  -0.040124  -0.034150  -0.046771  -0.004738
    12  N   -0.060554   0.303671   0.317544   0.003579   0.002780  -0.001817
    13  C    5.465249   0.254467   0.006663   0.004437  -0.009700   0.329861
    14  C    0.254467   5.203906  -0.040251   0.000174  -0.002524  -0.046218
    15  H    0.006663  -0.040251   0.478678  -0.000119   0.000090  -0.000035
    16  H    0.004437   0.000174  -0.000119   0.525687  -0.017940   0.000383
    17  H   -0.009700  -0.002524   0.000090  -0.017940   0.499432   0.006664
    18  H    0.329861  -0.046218  -0.000035   0.000383   0.006664   0.551996
    19  H    0.346848  -0.024575  -0.000108  -0.000065   0.000213  -0.016408
    20  H   -0.057452   0.340009  -0.000507   0.000161   0.000244   0.005706
    21  H   -0.001769   0.008223  -0.004119   0.000683  -0.002977   0.000107
    22  H   -0.001396  -0.008910  -0.000146   0.000822   0.004154   0.000184
    23  O    0.000000   0.000000   0.000000   0.000000   0.000000   0.000000
    24  O    0.000000   0.000000   0.000000   0.000000   0.000000   0.000000
    25  O    0.000000   0.000000   0.000000   0.000000   0.000000   0.000000
    26  N    0.000003  -0.000001   0.000000  -0.000047   0.000000   0.000000
    27  C    0.011095  -0.002313  -0.000078   0.022380   0.000755  -0.000011
    28  C    0.000873  -0.000485  -0.000001   0.005794   0.000098   0.000007
    29  C   -0.000476   0.000156   0.000000   0.000182  -0.000009  -0.000002
    30  C    0.000001   0.000000   0.000000   0.000005   0.000000   0.000000
    31  C   -0.000001   0.000000   0.000000  -0.000001   0.000000   0.000000
    32  C   -0.000001   0.000000   0.000000   0.000000   0.000000   0.000000
    33  C   -0.004523   0.001113   0.000000  -0.000137  -0.000004  -0.000022
    34  C   -0.010477  -0.024598   0.000204  -0.025999   0.009845   0.011221
    35  C   -0.032271   0.009719   0.000015  -0.003752  -0.000133  -0.000674
    36  C    0.000000   0.000000   0.000000   0.000000   0.000000   0.000000
    37  H    0.000000   0.000000   0.000000   0.000000   0.000000   0.000000
    38  C    0.000012  -0.000045   0.000000   0.000001   0.000000   0.000002
    39  H    0.000000   0.000000   0.000000   0.000000   0.000000   0.000000
    40  F   -0.008523  -0.000279   0.000000  -0.000004   0.000000  -0.000399
    41  H    0.000001   0.000000   0.000000   0.000000   0.000000   0.000000
    42  H    0.000000   0.000000   0.000000   0.000000   0.000000   0.000000
    43  H    0.000050  -0.000001   0.000000   0.000000   0.000000   0.000000
    44  C   -0.046573   0.260166  -0.005057  -0.000019   0.000189  -0.005715
    45  H   -0.007205  -0.039941  -0.000731   0.000000   0.000011   0.004630
    46  H   -0.003959  -0.025877   0.000068   0.000000   0.000000   0.000331
    47  H    0.004404  -0.025196   0.003014   0.000000  -0.000001  -0.000035
    48  H    0.000358  -0.000327   0.000002   0.002620   0.000271   0.000010
              19         20         21         22         23         24
     1  C    0.000000   0.000001   0.000003  -0.000035   0.000002   0.000004
     2  C    0.000000   0.000019  -0.000024   0.001119   0.000000   0.000000
     3  C    0.000000   0.000000   0.000000   0.000030   0.000000  -0.000002
     4  H    0.000000   0.000000   0.000000   0.000000   0.000000   0.000000
     5  H    0.000000   0.000000   0.000000   0.000000   0.000000   0.000000
     6  H    0.000000  -0.000001   0.000000  -0.000013   0.000000   0.000000
     7  H    0.000000   0.000000  -0.000002  -0.000060   0.000000   0.000000
     8  H    0.000000   0.000000   0.000000   0.000001   0.000000   0.000000
     9  N   -0.033734   0.002063   0.005475  -0.005663   0.000000   0.000000
    10  C    0.006621  -0.000678  -0.016589  -0.055922   0.000000   0.000000
    11  C   -0.000594  -0.005616   0.351089   0.352095   0.000000   0.000000
    12  N    0.003538  -0.082276  -0.037412  -0.065710   0.000000   0.000000
    13  C    0.346848  -0.057452  -0.001769  -0.001396   0.000000   0.000000
    14  C   -0.024575   0.340009   0.008223  -0.008910   0.000000   0.000000
    15  H   -0.000108  -0.000507  -0.004119  -0.000146   0.000000   0.000000
    16  H   -0.000065   0.000161   0.000683   0.000822   0.000000   0.000000
    17  H    0.000213   0.000244  -0.002977   0.004154   0.000000   0.000000
    18  H   -0.016408   0.005706   0.000107   0.000184   0.000000   0.000000
    19  H    0.456078  -0.000642  -0.000003   0.000107   0.000000   0.000000
    20  H   -0.000642   0.635162  -0.000103   0.010005   0.000000   0.000000
    21  H   -0.000003  -0.000103   0.522164  -0.035884   0.000000   0.000000
    22  H    0.000107   0.010005  -0.035884   0.609508   0.000000   0.000000
    23  O    0.000000   0.000000   0.000000   0.000000   7.806175  -0.008059
    24  O    0.000000   0.000000   0.000000   0.000000  -0.008059   8.082203
    25  O    0.000000   0.000000   0.000000   0.000000   0.000009  -0.084654
    26  N    0.000000   0.000000   0.000000   0.000001   0.000413   0.000026
    27  C    0.001168   0.000130  -0.000186   0.002572  -0.000423  -0.000005
    28  C    0.000152   0.000132   0.000011   0.001014  -0.011180  -0.000410
    29  C   -0.000018  -0.000007   0.000000   0.000009  -0.087960  -0.000480
    30  C    0.000000   0.000000   0.000000   0.000002   0.000767  -0.006075
    31  C    0.000000   0.000000   0.000000   0.000000  -0.086653  -0.027686
    32  C    0.000000   0.000000   0.000000   0.000000   0.670854   0.002589
    33  C   -0.001355  -0.000012   0.000000  -0.000004   0.005480   0.000098
    34  C   -0.001020   0.007651   0.000501   0.002424  -0.000076   0.000000
    35  C   -0.004979  -0.000119  -0.000011  -0.000077  -0.002460   0.000000
    36  C    0.000000   0.000000   0.000000   0.000000  -0.010435   0.249202
    37  H    0.000000   0.000000   0.000000   0.000000  -0.000064   0.000348
    38  C    0.000093   0.000005   0.000000   0.000000   0.008893   0.000016
    39  H    0.000000   0.000000   0.000000   0.000000   0.000491   0.243522
    40  F    0.005923   0.000075   0.000000   0.000000   0.000001   0.000000
    41  H    0.000000   0.000000   0.000000   0.000000  -0.003288  -0.000001
    42  H    0.000000   0.000000   0.000000   0.000000  -0.003475  -0.000001
    43  H    0.000012   0.000000   0.000000   0.000000   0.001331   0.000000
    44  C   -0.000223  -0.050992  -0.000509   0.000450   0.000000   0.000000
    45  H    0.000286   0.004158   0.000004   0.000009   0.000000   0.000000
    46  H    0.001358   0.001403   0.000001   0.000011   0.000000   0.000000
    47  H   -0.000074  -0.003395   0.000000  -0.000021   0.000000   0.000000
    48  H   -0.000010   0.000083   0.000136   0.001209   0.000001   0.000000
              25         26         27         28         29         30
     1  C    0.000286   0.287115   0.001544  -0.028596   0.011282  -0.064157
     2  C    0.000002  -0.034886   0.008319  -0.012463  -0.001599  -0.008920
     3  C    0.000001  -0.019727  -0.006706   0.003376   0.000671   0.014400
     4  H    0.000001   0.000655   0.000169  -0.000112  -0.000014   0.000179
     5  H    0.000032  -0.007001   0.000216  -0.000302  -0.000111   0.001994
     6  H    0.000000  -0.002270  -0.001853   0.001688   0.000095   0.000731
     7  H    0.000000   0.000712  -0.000908   0.001970   0.000064   0.000071
     8  H   -0.000001  -0.033914   0.003576   0.000495  -0.000302   0.000024
     9  N    0.000000   0.000025  -0.085959  -0.011961   0.004809  -0.000008
    10  C    0.000000   0.000045   0.026206  -0.000896  -0.000344   0.000019
    11  C    0.000000  -0.000010   0.000938   0.000486   0.000084  -0.000002
    12  N    0.000000   0.000000  -0.000451  -0.000064  -0.000002   0.000000
    13  C    0.000000   0.000003   0.011095   0.000873  -0.000476   0.000001
    14  C    0.000000  -0.000001  -0.002313  -0.000485   0.000156   0.000000
    15  H    0.000000   0.000000  -0.000078  -0.000001   0.000000   0.000000
    16  H    0.000000  -0.000047   0.022380   0.005794   0.000182   0.000005
    17  H    0.000000   0.000000   0.000755   0.000098  -0.000009   0.000000
    18  H    0.000000   0.000000  -0.000011   0.000007  -0.000002   0.000000
    19  H    0.000000   0.000000   0.001168   0.000152  -0.000018   0.000000
    20  H    0.000000   0.000000   0.000130   0.000132  -0.000007   0.000000
    21  H    0.000000   0.000000  -0.000186   0.000011   0.000000   0.000000
    22  H    0.000000   0.000001   0.002572   0.001014   0.000009   0.000002
    23  O    0.000009   0.000413  -0.000423  -0.011180  -0.087960   0.000767
    24  O   -0.084654   0.000026  -0.000005  -0.000410  -0.000480  -0.006075
    25  O    7.893550   0.000952  -0.000019  -0.000463   0.000039   0.004668
[...]
    16  H    0.000000  -0.000050   0.021288   0.005904   0.000203   0.000004
    17  H    0.000000   0.000000   0.000539   0.000076  -0.000007   0.000000
    18  H    0.000000   0.000000  -0.000014   0.000009  -0.000001   0.000000
    19  H    0.000000   0.000000   0.000796   0.000109   0.000028   0.000000
    20  H    0.000000   0.000000   0.000351   0.000275  -0.000007   0.000000
    21  H    0.000000   0.000000  -0.000610  -0.000011   0.000000   0.000000
    22  H    0.000000  -0.000002   0.004648   0.002068   0.000044   0.000002
    23  O    0.000004   0.000424  -0.000357  -0.010190  -0.085018   0.000541
    24  O   -0.086812   0.000012  -0.000004  -0.000361  -0.000629  -0.007887
    25  O    7.893639   0.000801  -0.000015  -0.000372   0.000018   0.007744
    26  N    0.000801   6.615343  -0.049912   0.195111  -0.000597   0.376786
    27  C   -0.000015  -0.049912   5.989235   0.404673  -0.202275   0.006598
    28  C   -0.000372   0.195111   0.404673   5.571692   0.061533  -0.121272
    29  C    0.000018  -0.000597  -0.202275   0.061533   6.192929   0.011857
    30  C    0.007744   0.376786   0.006598  -0.121272   0.011857   5.512091
    31  C   -0.064660  -0.062941   0.001880   0.065025  -0.188248   0.281775
    32  C   -0.003003  -0.007734   0.005949  -0.010574   0.082297  -0.060849
    33  C    0.000020   0.007477  -0.133530  -0.157583   0.380815   0.007202
    34  C    0.000000  -0.004937   0.395889  -0.117327  -0.147334  -0.000420
    35  C    0.000000   0.002028  -0.206480  -0.142401  -0.116501   0.000260
    36  C    0.590810   0.007982  -0.000284   0.002089  -0.034764   0.001808
    37  H    0.009792  -0.036963   0.000276  -0.004191  -0.000130   0.317754
    38  C    0.000000  -0.000316   0.003158   0.002022  -0.065355  -0.000338
    39  H    0.002803   0.000001   0.000000   0.000007   0.000036  -0.000319
    40  F    0.000000   0.000000  -0.000190  -0.001475  -0.000965   0.000000
    41  H    0.000000  -0.000001   0.000050   0.001157   0.007277   0.000005
    42  H    0.000000  -0.000005   0.000033   0.001174   0.008989   0.000042
    43  H    0.000000   0.000001   0.000088  -0.000296  -0.007484  -0.000002
    44  C    0.000000   0.000000  -0.000068  -0.000006   0.000004   0.000000
    45  H    0.000000   0.000000   0.000003   0.000000   0.000000   0.000000
    46  H    0.000000   0.000000   0.000010   0.000000   0.000000   0.000000
    47  H    0.000000   0.000000  -0.000001   0.000000   0.000000   0.000000
    48  H    0.000000  -0.004547   0.292336   0.006189  -0.001790   0.001259
              31         32         33         34         35         36
     1  C    0.003815   0.000302   0.000900  -0.002187  -0.000018   0.000052
     2  C   -0.001278   0.000112  -0.000265   0.003621   0.000158   0.000024
     3  C    0.001046  -0.000139   0.000061  -0.000758  -0.000014   0.000055
     4  H   -0.000051   0.000000   0.000000   0.000006   0.000000   0.000001
     5  H    0.000707   0.000049  -0.000001   0.000005   0.000000   0.000075
     6  H   -0.000051  -0.000010   0.000021   0.000181   0.000001   0.000000
     7  H    0.000012   0.000000   0.000004  -0.000407  -0.000014   0.000000
     8  H    0.000251   0.000028  -0.000001   0.000512  -0.000006   0.000007
     9  N   -0.000003   0.000083   0.009832   0.143222   0.027115   0.000000
    10  C    0.000002  -0.000025   0.000839  -0.097423   0.005348   0.000000
    11  C   -0.000001   0.000002  -0.000063  -0.024398  -0.002584   0.000000
    12  N    0.000000   0.000000   0.000012  -0.001050   0.000254   0.000000
    13  C   -0.000001  -0.000001  -0.004479  -0.015446  -0.032247   0.000000
    14  C    0.000000   0.000001   0.001212  -0.025284   0.009278   0.000000
    15  H    0.000000   0.000000   0.000000   0.000200   0.000010   0.000000
    16  H    0.000000   0.000000  -0.000159  -0.025523  -0.003944   0.000000
    17  H    0.000000   0.000000  -0.000005   0.009919  -0.000087   0.000000
    18  H    0.000000   0.000000  -0.000035   0.011462  -0.000861   0.000000
    19  H    0.000000   0.000000  -0.000899  -0.004553  -0.002154   0.000000
    20  H    0.000000   0.000001  -0.000041   0.008845  -0.000352   0.000000
    21  H    0.000000   0.000000   0.000000   0.000935   0.000009   0.000000
    22  H    0.000000   0.000000  -0.000012   0.000473  -0.000348   0.000000
    23  O   -0.094491   0.677128   0.002035  -0.000072  -0.002674  -0.006850
    24  O   -0.027779   0.003253   0.000063   0.000000   0.000000   0.252177
    25  O   -0.064660  -0.003003   0.000020   0.000000   0.000000   0.590810
    26  N   -0.062941  -0.007734   0.007477  -0.004937   0.002028   0.007982
    27  C    0.001880   0.005949  -0.133530   0.395889  -0.206480  -0.000284
    28  C    0.065025  -0.010574  -0.157583  -0.117327  -0.142401   0.002089
    29  C   -0.188248   0.082297   0.380815  -0.147334  -0.116501  -0.034764
    30  C    0.281775  -0.060849   0.007202  -0.000420   0.000260   0.001808
    31  C    5.921565   0.057599  -0.060450   0.000598  -0.004916   0.066784
    32  C    0.057599   5.333875  -0.100683  -0.000223  -0.026477  -0.055196
    33  C   -0.060450  -0.100683   5.580273  -0.166970   0.363717  -0.000768
    34  C    0.000598  -0.000223  -0.166970   5.542680   0.254195  -0.000008
    35  C   -0.004916  -0.026477   0.363717   0.254195   5.636621   0.000003
    36  C    0.066784  -0.055196  -0.000768  -0.000008   0.000003   5.032418
    37  H   -0.018054   0.002767   0.000013  -0.000003  -0.000002  -0.006608
    38  C    0.003522  -0.025008   0.181982   0.010451  -0.013427   0.000031
    39  H    0.005045   0.001331  -0.000003   0.000000   0.000000  -0.029452
    40  F    0.000000   0.000007  -0.071306  -0.062020   0.315227   0.000000
    41  H   -0.000105  -0.001933  -0.021086  -0.000561  -0.011352  -0.000006
    42  H   -0.000719  -0.003986  -0.029256  -0.000128  -0.006904  -0.000016
    43  H    0.000063   0.002210  -0.048314   0.003074   0.022033   0.000000
    44  C    0.000000   0.000000  -0.000030  -0.001472  -0.000151   0.000000
    45  H    0.000000   0.000000   0.000000   0.000055  -0.000003   0.000000
    46  H    0.000000   0.000000  -0.000004   0.000107  -0.000065   0.000000
    47  H    0.000000   0.000000   0.000000   0.000004   0.000004   0.000000
    48  H   -0.000037  -0.000154   0.001632  -0.041927  -0.002540   0.000000
              37         38         39         40         41         42
     1  C    0.001460   0.000010   0.000000  -0.000001   0.000000   0.000000
     2  C    0.000193  -0.000002   0.000000   0.000000   0.000000   0.000000
     3  C    0.001787   0.000000   0.000000   0.000000   0.000000   0.000000
     4  H    0.000000   0.000000   0.000000   0.000000   0.000000   0.000000
     5  H   -0.000701   0.000000   0.000000   0.000000   0.000000   0.000000
     6  H    0.000078   0.000000   0.000000   0.000000   0.000000   0.000000
     7  H   -0.000011   0.000000   0.000000   0.000000   0.000000   0.000000
     8  H    0.000387   0.000000   0.000000   0.000000   0.000000   0.000000
     9  N    0.000000  -0.000449   0.000000   0.005084   0.000002   0.000002
    10  C    0.000000   0.000000   0.000000  -0.000176   0.000000   0.000000
    11  C    0.000000   0.000000   0.000000   0.000003   0.000000   0.000000
    12  N    0.000000   0.000000   0.000000  -0.000005   0.000000   0.000000
    13  C    0.000000   0.000082   0.000000  -0.005528   0.000001   0.000000
    14  C    0.000000  -0.000051   0.000000  -0.000336   0.000000   0.000000
    15  H    0.000000   0.000000   0.000000   0.000000   0.000000   0.000000
    16  H    0.000000   0.000001   0.000000  -0.000005   0.000000   0.000000
    17  H    0.000000   0.000000   0.000000   0.000001   0.000000   0.000000
    18  H    0.000000   0.000002   0.000000  -0.000316   0.000000   0.000000
    19  H    0.000000   0.000059   0.000000   0.005422   0.000000   0.000000
    20  H    0.000000   0.000007   0.000000   0.000075   0.000000   0.000000
    21  H    0.000000   0.000000   0.000000   0.000000   0.000000   0.000000
    22  H    0.000000   0.000000   0.000000   0.000000   0.000000   0.000000
    23  O   -0.000059   0.009142   0.000148   0.000001  -0.002197  -0.003943
    24  O    0.000356   0.000016   0.250527   0.000000   0.000000  -0.000003
    25  O    0.009792   0.000000   0.002803   0.000000   0.000000   0.000000
    26  N   -0.036963  -0.000316   0.000001   0.000000  -0.000001  -0.000005
    27  C    0.000276   0.003158   0.000000  -0.000190   0.000050   0.000033
    28  C   -0.004191   0.002022   0.000007  -0.001475   0.001157   0.001174
    29  C   -0.000130  -0.065355   0.000036  -0.000965   0.007277   0.008989
    30  C    0.317754  -0.000338  -0.000319   0.000000   0.000005   0.000042
    31  C   -0.018054   0.003522   0.005045   0.000000  -0.000105  -0.000719
    32  C    0.002767  -0.025008   0.001331   0.000007  -0.001933  -0.003986
    33  C    0.000013   0.181982  -0.000003  -0.071306  -0.021086  -0.029256
    34  C   -0.000003   0.010451   0.000000  -0.062020  -0.000561  -0.000128
    35  C   -0.000002  -0.013427   0.000000   0.315227  -0.011352  -0.006904
    36  C   -0.006608   0.000031  -0.029452   0.000000  -0.000006  -0.000016
    37  H    0.445115   0.000001  -0.000001   0.000000   0.000000   0.000000
    38  C    0.000001   5.578689   0.000000  -0.007501   0.370775   0.376794
    39  H   -0.000001   0.000000   0.363170   0.000000   0.000000   0.000000
    40  F    0.000000  -0.007501   0.000000   9.083354  -0.000016   0.000085
    41  H    0.000000   0.370775   0.000000  -0.000016   0.445556  -0.015847
    42  H    0.000000   0.376794   0.000000   0.000085  -0.015847   0.454958
    43  H    0.000000   0.352179   0.000000   0.003366  -0.023896  -0.025456
    44  C    0.000000   0.000000   0.000000   0.000064   0.000000   0.000000
    45  H    0.000000   0.000000   0.000000   0.000000   0.000000   0.000000
    46  H    0.000000   0.000000   0.000000  -0.000005   0.000000   0.000000
    47  H    0.000000   0.000000   0.000000   0.000000   0.000000   0.000000
    48  H    0.000006   0.000028   0.000000  -0.000036   0.000000   0.000000
              43         44         45         46         47         48
     1  C    0.000000   0.000000   0.000000   0.000000   0.000000   0.016382
     2  C    0.000000   0.000000   0.000000   0.000000   0.000000   0.002263
     3  C    0.000000   0.000000   0.000000   0.000000   0.000000   0.000310
     4  H    0.000000   0.000000   0.000000   0.000000   0.000000   0.000012
     5  H    0.000000   0.000000   0.000000   0.000000   0.000000   0.000001
     6  H    0.000000   0.000000   0.000000   0.000000   0.000000  -0.001012
     7  H    0.000000   0.000000   0.000000   0.000000   0.000000  -0.000060
     8  H    0.000000   0.000000   0.000000   0.000000   0.000000  -0.002237
     9  N   -0.000017   0.008704   0.000058   0.000011  -0.000166  -0.005994
    10  C    0.000000  -0.002891  -0.000042   0.000128   0.000022   0.006728
    11  C    0.000000   0.008567   0.000327  -0.000297  -0.000070  -0.004140
    12  N    0.000000  -0.053340   0.001010   0.003397  -0.004351  -0.000012
    13  C    0.000035  -0.048893  -0.007904  -0.004281   0.004594   0.000447
    14  C   -0.000001   0.263625  -0.039853  -0.024817  -0.024964  -0.000465
    15  H    0.000000  -0.005503  -0.000727   0.000097   0.003083   0.000003
    16  H    0.000000  -0.000019   0.000001   0.000000   0.000000   0.002297
    17  H    0.000000   0.000196   0.000013   0.000000  -0.000001   0.000318
    18  H    0.000000  -0.006357   0.005046   0.000374  -0.000064   0.000012
    19  H    0.000008   0.000020   0.000280   0.001476  -0.000077  -0.000009
    20  H    0.000000  -0.051461   0.004314   0.001295  -0.003577   0.000122
    21  H    0.000000  -0.000513   0.000004   0.000001  -0.000001   0.000191
    22  H    0.000000   0.000408   0.000009   0.000011  -0.000021   0.002531
    23  O    0.001094   0.000000   0.000000   0.000000   0.000000   0.000001
    24  O    0.000000   0.000000   0.000000   0.000000   0.000000   0.000000
    25  O    0.000000   0.000000   0.000000   0.000000   0.000000   0.000000
    26  N    0.000001   0.000000   0.000000   0.000000   0.000000  -0.004547
    27  C    0.000088  -0.000068   0.000003   0.000010  -0.000001   0.292336
    28  C   -0.000296  -0.000006   0.000000   0.000000   0.000000   0.006189
    29  C   -0.007484   0.000004   0.000000   0.000000   0.000000  -0.001790
    30  C   -0.000002   0.000000   0.000000   0.000000   0.000000   0.001259
    31  C    0.000063   0.000000   0.000000   0.000000   0.000000  -0.000037
    32  C    0.002210   0.000000   0.000000   0.000000   0.000000  -0.000154
    33  C   -0.048314  -0.000030   0.000000  -0.000004   0.000000   0.001632
    34  C    0.003074  -0.001472   0.000055   0.000107   0.000004  -0.041927
    35  C    0.022033  -0.000151  -0.000003  -0.000065   0.000004  -0.002540
    36  C    0.000000   0.000000   0.000000   0.000000   0.000000   0.000000
    37  H    0.000000   0.000000   0.000000   0.000000   0.000000   0.000006
    38  C    0.352179   0.000000   0.000000   0.000000   0.000000   0.000028
    39  H    0.000000   0.000000   0.000000   0.000000   0.000000   0.000000
    40  F    0.003366   0.000064   0.000000  -0.000005   0.000000  -0.000036
    41  H   -0.023896   0.000000   0.000000   0.000000   0.000000   0.000000
    42  H   -0.025456   0.000000   0.000000   0.000000   0.000000   0.000000
    43  H    0.487213   0.000000   0.000000   0.000000   0.000000   0.000000
    44  C    0.000000   5.496516   0.372505   0.362575   0.368379  -0.000006
    45  H    0.000000   0.372505   0.489991  -0.019238  -0.023388   0.000000
    46  H    0.000000   0.362575  -0.019238   0.486816  -0.021230   0.000000
    47  H    0.000000   0.368379  -0.023388  -0.021230   0.498574   0.000000
    48  H    0.000000  -0.000006   0.000000   0.000000   0.000000   0.471225
 Mulliken charges:
               1
     1  C   -0.158158
     2  C   -0.476242
     3  C   -0.517402
     4  H    0.252746
     5  H    0.250974
     6  H    0.249311
     7  H    0.251839
     8  H    0.275948
     9  N   -0.217490
    10  C   -0.398360
    11  C   -0.375095
    12  N   -0.399037
    13  C   -0.403181
    14  C    0.017551
    15  H    0.288995
    16  H    0.210018
    17  H    0.248206
    18  H    0.219121
    19  H    0.255758
    20  H    0.191144
    21  H    0.210889
    22  H    0.186957
    23  O   -0.287132
    24  O   -0.454682
    25  O   -0.351006
    26  N   -0.230922
    27  C   -0.489422
    28  C    0.294981
    29  C    0.091576
    30  C   -0.281551
    31  C    0.114096
    32  C    0.129002
    33  C    0.257832
    34  C    0.353998
    35  C   -0.059741
    36  C    0.179636
    37  H    0.286737
    38  C   -0.776504
    39  H    0.406707
    40  F   -0.262808
    41  H    0.252176
    42  H    0.244188
    43  H    0.234100
    44  C   -0.710856
    45  H    0.217539
    46  H    0.213638
    47  H    0.203251
    48  H    0.260673
 Sum of Mulliken charges =   0.00000
 Mulliken charges with hydrogens summed into heavy atoms:
               1
     1  C    0.117790
     2  C    0.024908
     3  C   -0.013682
     9  N   -0.217490
    10  C    0.059865
    11  C    0.022751
    12  N   -0.110042
    13  C    0.071698
    14  C    0.208695
    23  O   -0.287132
    24  O   -0.047975
    25  O   -0.351006
    26  N   -0.230922
    27  C   -0.228749
    28  C    0.294981
    29  C    0.091576
    30  C    0.005186
    31  C    0.114096
    32  C    0.129002
    33  C    0.257832
    34  C    0.353998
    35  C   -0.059741
    36  C    0.179636
    38  C   -0.046040
    40  F   -0.262808
    44  C   -0.076428
 Electronic spatial extent (au):  <R**2>=          10732.7395
 Charge=              0.0000 electrons
 Dipole moment (field-independent basis, Debye):
    X=              5.7635    Y=              6.6466    Z=             -0.3546  Tot=              8.8046
 Quadrupole moment (field-independent basis, Debye-Ang):
   XX=           -160.2715   YY=           -146.3807   ZZ=           -150.1890
   XY=              1.7247   XZ=             11.0100   YZ=             -2.3687
 Traceless Quadrupole moment (field-independent basis, Debye-Ang):
   XX=             -7.9911   YY=              5.8997   ZZ=              2.0914
   XY=              1.7247   XZ=             11.0100   YZ=             -2.3687
 Octapole moment (field-independent basis, Debye-Ang**2):
  XXX=             65.2941  YYY=             58.0029  ZZZ=              4.2678  XYY=             28.7120
  XXY=            -24.4730  XXZ=              6.8036  XZZ=             12.7901  YZZ=              4.1068
  YYZ=            -10.3633  XYZ=             -5.1648
 Hexadecapole moment (field-independent basis, Debye-Ang**3):
 XXXX=          -9586.0427 YYYY=          -3234.0097 ZZZZ=           -585.6895 XXXY=            468.8719
 XXXZ=            243.0905 YYYX=            -53.4049 YYYZ=            -34.8882 ZZZX=             -4.3977
 ZZZY=             -1.8489 XXYY=          -2267.5216 XXZZ=          -1682.8483 YYZZ=           -660.2679
 XXYZ=             15.0777 YYXZ=             49.2713 ZZXY=             17.9776
 N-N= 2.398377594015D+03 E-N=-7.658699144298D+03  KE= 1.219984646477D+03
 1\1\GINC-NODE043\FOpt\RM06\LANL2DZ\C19H22F1N3O3\SUPERCOMPUTO1\21-Jul-2
 020\0\\#opt M06/lanl2dz integral=ultrafine geom=connectivity\\Title Ca
 rd Required\\0,1\C,-1.1945491949,2.7571228504,-0.4271377194\C,-0.32722
 98319,3.4222150854,0.6291131423\C,-1.7629459129,3.8711557372,0.4292242
 365\H,-1.9522234653,4.8239325794,-0.0506325935\H,-2.4762984609,3.60603
 50043,1.202961592\H,-0.1077784346,2.8372078071,1.5173222053\H,0.477864
 5118,4.068063585,0.2947856139\H,-0.9763274147,2.9809133388,-1.46885718
 15\N,2.8785286778,-0.2286979836,-0.9420462006\C,3.3187130036,1.0889743
 233,-1.4147597656\C,3.7946489593,1.9582452929,-0.2415123792\N,4.854418
 6122,1.2271608323,0.4540518529\C,3.9701237215,-0.9346168779,-0.2436919
 806\C,4.4554454345,-0.0974649189,0.950531304\H,5.3746370232,1.77731745
 62,1.1334644153\H,2.5249227544,1.5740321504,-1.9897884079\H,4.17345258
 42,0.9299053932,-2.0851367372\H,4.8102203249,-1.061319734,-0.941477167
 1\H,3.641498926,-1.919320271,0.0897294064\H,3.6049026917,-0.0210884315
 ,1.6640315718\H,4.1935587661,2.9066666618,-0.6180996567\H,2.9290533389
 ,2.1847238768,0.4178230308\O,-3.0601592238,-2.369716723,0.7014706012\O
 ,-5.5652271127,-1.3288008535,0.0833170733\O,-5.6964058277,0.9082678564
 ,0.4672223312\N,-1.6563993919,1.3991277063,-0.204203514\C,0.5970989961
 ,0.5741588006,-0.5579062369\C,-0.7520882747,0.3125253996,-0.2804398724
 \C,-1.2290123467,-1.0060923109,-0.0571863201\C,-2.9877267198,1.1636541
 612,-0.0449320113\C,-3.5271653432,-0.0824091584,0.1518238001\C,-2.6528
 346797,-1.2570864424,0.2870931674\C,-0.2954973528,-2.0805010022,-0.169
 2098148\C,1.5424628534,-0.4633927124,-0.6412503374\C,1.0254407017,-1.7
 722156973,-0.4612533057\C,-4.9944609058,-0.103455834,0.2700786007\H,-3
 .6454562528,2.0278176964,-0.0760451692\C,-0.6854553689,-3.5294078382,-
 0.0361822709\H,-6.540242551,-1.259011569,0.179221628\F,1.9130113771,-2
 .8365307382,-0.6520101501\H,-0.9809928574,-3.7563014594,0.9921126047\H
 ,-1.5656379743,-3.7534553735,-0.6444274883\H,0.1400315895,-4.180469441
 9,-0.3290723792\C,5.6405235546,-0.7705462943,1.6311145516\H,6.46608329
 1,-0.8751034544,0.9164769485\H,5.3670714713,-1.7642155238,2.0028984639
 \H,5.9990730415,-0.1784474796,2.4825080271\H,0.9217186922,1.5991285284
 ,-0.6783265092\\Version=ES64L-G09RevD.01\State=1-A\HF=-1226.0697943\RM
 SD=7.598e-09\RMSF=5.199e-06\Dipole=2.2476675,2.632567,-0.1301372\Quadr
 upole=-5.8062383,4.4427988,1.3634396,1.0986042,8.2792021,-1.679599\PG=
 C01 [X(C19H22F1N3O3)]\\@


 IF MATHEMATICALLY YOU END UP WITH THE INCORRECT ANSWER,
 TRY MULTIPLYING BY THE PAGE NUMBER.
 Job cpu time:       0 days  6 hours  8 minutes 34.2 seconds.
 File lengths (MBytes):  RWF=     51 Int=      0 D2E=      0 Chk=      8 Scr=      1
 Normal termination of Gaussian 09 at Tue Jul 21 17:10:08 2020.
