 Entering Gaussian System, Link 0=g09
 Input=ofloxacina.gjf
 Output=ofloxacina.log
 Initial command:
 /usr/local/cluster_programs/g09/l1.exe "/tmp/scratch/64213.prometeo/Gau-18847.inp" -scrdir="/tmp/scratch/64213.prometeo/"
 Entering Link 1 = /usr/local/cluster_programs/g09/l1.exe PID=     18848.
  
 Copyright (c) 1988,1990,1992,1993,1995,1998,2003,2009,2013,
            Gaussian, Inc.  All Rights Reserved.
  
 This is part of the Gaussian(R) 09 program.  It is based on
 the Gaussian(R) 03 system (copyright 2003, Gaussian, Inc.),
 the Gaussian(R) 98 system (copyright 1998, Gaussian, Inc.),
 the Gaussian(R) 94 system (copyright 1995, Gaussian, Inc.),
 the Gaussian 92(TM) system (copyright 1992, Gaussian, Inc.),
 the Gaussian 90(TM) system (copyright 1990, Gaussian, Inc.),
 the Gaussian 88(TM) system (copyright 1988, Gaussian, Inc.),
 the Gaussian 86(TM) system (copyright 1986, Carnegie Mellon
 University), and the Gaussian 82(TM) system (copyright 1983,
 Carnegie Mellon University). Gaussian is a federally registered
 trademark of Gaussian, Inc.
  
 This software contains proprietary and confidential information,
 including trade secrets, belonging to Gaussian, Inc.
  
 This software is provided under written license and may be
 used, copied, transmitted, or stored only in accord with that
 written license.
  
 The following legend is applicable only to US Government
 contracts under FAR:
  
                    RESTRICTED RIGHTS LEGEND
  
 Use, reproduction and disclosure by the US Government is
 subject to restrictions as set forth in subparagraphs (a)
 and (c) of the Commercial Computer Software - Restricted
 Rights clause in FAR 52.227-19.
  
 Gaussian, Inc.
 340 Quinnipiac St., Bldg. 40, Wallingford CT 06492
  
  
 ---------------------------------------------------------------
 Warning -- This program may not be used in any manner that
 competes with the business of Gaussian, Inc. or will provide
 assistance to any competitor of Gaussian, Inc.  The licensee
 of this program is prohibited from giving any competitor of
 Gaussian, Inc. access to this program.  By using this program,
 the user acknowledges that Gaussian, Inc. is engaged in the
 business of creating and licensing software in the field of
 computational chemistry and represents and warrants to the
 licensee that it is not a competitor of Gaussian, Inc. and that
 it will not use this program in any manner prohibited above.
 ---------------------------------------------------------------
  

 Cite this work as:
 Gaussian 09, Revision D.01,
 M. J. Frisch, G. W. Trucks, H. B. Schlegel, G. E. Scuseria, 
 M. A. Robb, J. R. Cheeseman, G. Scalmani, V. Barone, B. Mennucci, 
 G. A. Petersson, H. Nakatsuji, M. Caricato, X. Li, H. P. Hratchian, 
 A. F. Izmaylov, J. Bloino, G. Zheng, J. L. Sonnenberg, M. Hada, 
 M. Ehara, K. Toyota, R. Fukuda, J. Hasegawa, M. Ishida, T. Nakajima, 
 Y. Honda, O. Kitao, H. Nakai, T. Vreven, J. A. Montgomery, Jr., 
 J. E. Peralta, F. Ogliaro, M. Bearpark, J. J. Heyd, E. Brothers, 
 K. N. Kudin, V. N. Staroverov, T. Keith, R. Kobayashi, J. Normand, 
 K. Raghavachari, A. Rendell, J. C. Burant, S. S. Iyengar, J. Tomasi, 
 M. Cossi, N. Rega, J. M. Millam, M. Klene, J. E. Knox, J. B. Cross, 
 V. Bakken, C. Adamo, J. Jaramillo, R. Gomperts, R. E. Stratmann, 
 O. Yazyev, A. J. Austin, R. Cammi, C. Pomelli, J. W. Ochterski, 
 R. L. Martin, K. Morokuma, V. G. Zakrzewski, G. A. Voth, 
 P. Salvador, J. J. Dannenberg, S. Dapprich, A. D. Daniels, 
 O. Farkas, J. B. Foresman, J. V. Ortiz, J. Cioslowski, 
 and D. J. Fox, Gaussian, Inc., Wallingford CT, 2013.
 
 ******************************************
 Gaussian 09:  ES64L-G09RevD.01 24-Apr-2013
                21-Jul-2020 
 ******************************************
 %nprocshared=20
 Will use up to   20 processors via shared memory.
 -----------------------------------------------------
 #opt M06/lanl2dz integral=ultrafine geom=connectivity
 -----------------------------------------------------
 1/14=-1,18=20,19=15,26=4,38=1,57=2/1,3;
 2/9=110,12=2,17=6,18=5,40=1/2;
 3/5=6,6=3,11=2,16=1,25=1,30=1,71=1,74=-54,75=-5/1,2,3;
 4//1;
 5/5=2,38=5/2;
 6/7=2,8=2,9=2,10=2,28=1/1;
 7//1,2,3,16;
 1/14=-1,18=20,19=15,26=4/3(2);
 2/9=110/2;
 99//99;
 2/9=110/2;
 3/5=6,6=3,11=2,16=1,25=1,30=1,71=1,74=-54,75=-5/1,2,3;
 4/5=5,16=3,69=1/1;
 5/5=2,38=5/2;
 7//1,2,3,16;
 1/14=-1,18=20,19=15,26=4/3(-5);
 2/9=110/2;
 6/7=2,8=2,9=2,10=2,19=2,28=1/1;
 99/9=1/99;
 -------------------
 Title Card Required
 -------------------
 Symbolic Z-matrix:
 Charge =  0 Multiplicity = 1
 F                     1.68229  -2.84831   0.09272 
 H                     5.08127   1.34919  -1.74892 
 H                     4.59479  -0.36295  -1.77198 
 H                     3.26485   1.81255  -0.0738 
 H                     2.63587   1.13668  -1.58558 
 H                     4.39558   0.547     1.83239 
 H                     5.46593  -0.86577   1.79049 
 H                     3.93564  -1.95167   0.11155 
 H                     3.08146  -1.55078   1.60902 
 C                     6.75544  -0.41092  -0.31387 
 H                     7.30523   0.1645   -1.0674 
 H                     6.56493  -1.41945  -0.7297 
 H                     7.39274  -0.50961   0.57 
 N                     2.63469  -0.24193   0.0114 
 C                     3.58855  -1.12516   0.74009 
 C                     4.77708  -0.25875   1.19461 
 C                     3.23739   0.91716  -0.70107 
 C                     4.66008   0.54099  -1.13872 
 N                     5.52895   0.32424   0.04602 
 C                    -0.19529   2.77604  -0.71137 
 H                     0.23977   3.77165  -0.62222 
 H                    -0.30793   2.49679  -1.76525 
 O                     0.75167   1.87     -0.0442 
 O                    -3.30876  -2.64335   0.00712 
 O                    -5.82241  -1.60179  -0.13205 
 O                    -6.04227   0.66828  -0.20476 
 N                    -2.0109    1.28626  -0.0908 
 C                     0.30843   0.53364  -0.0386 
 C                    -1.06581   0.24574  -0.05476 
 C                    -1.51836  -1.08148  -0.01056 
 C                    -1.54662   2.69972   0.0103 
 C                    -3.33346   0.98746  -0.11621 
 C                    -3.84368  -0.28242  -0.10274 
 C                    -2.95832  -1.44788  -0.03269 
 C                    -0.57029  -2.10519   0.057 
 C                     1.27658  -0.49059   0.0089 
 C                    -1.41409   3.12895   1.48123 
 C                     0.7684   -1.81529   0.06152 
 C                    -5.31111  -0.32975  -0.15152 
 H                    -2.27897   3.31981  -0.51592 
 H                    -4.02904   1.81869  -0.15177 
 H                    -0.92299  -3.12709   0.08135 
 H                    -1.1705    4.19569   1.5362 
 H                    -2.349     2.95208   2.01984 
 H                    -0.60892   2.55896   1.95009 
 H                    -6.81584  -1.52023  -0.1672 
 

 GradGradGradGradGradGradGradGradGradGradGradGradGradGradGradGradGradGrad
 Berny optimization.
 Initialization pass.
                           ----------------------------
                           !    Initial Parameters    !
                           ! (Angstroms and Degrees)  !
 --------------------------                            --------------------------
 ! Name  Definition              Value          Derivative Info.                !
 --------------------------------------------------------------------------------
 ! R1    R(1,38)                 1.3796         estimate D2E/DX2                !
 ! R2    R(2,18)                 1.0968         estimate D2E/DX2                !
 ! R3    R(3,18)                 1.1056         estimate D2E/DX2                !
 ! R4    R(4,17)                 1.0936         estimate D2E/DX2                !
 ! R5    R(5,17)                 1.092          estimate D2E/DX2                !
 ! R6    R(6,16)                 1.0961         estimate D2E/DX2                !
 ! R7    R(7,16)                 1.0946         estimate D2E/DX2                !
 ! R8    R(8,15)                 1.0948         estimate D2E/DX2                !
 ! R9    R(9,15)                 1.0924         estimate D2E/DX2                !
 ! R10   R(10,11)                1.096          estimate D2E/DX2                !
 ! R11   R(10,12)                1.1074         estimate D2E/DX2                !
 ! R12   R(10,13)                1.0941         estimate D2E/DX2                !
 ! R13   R(10,19)                1.4745         estimate D2E/DX2                !
 ! R14   R(14,15)                1.4903         estimate D2E/DX2                !
 ! R15   R(14,17)                1.4881         estimate D2E/DX2                !
 ! R16   R(14,36)                1.3807         estimate D2E/DX2                !
 ! R17   R(15,16)                1.5394         estimate D2E/DX2                !
 ! R18   R(16,19)                1.4915         estimate D2E/DX2                !
 ! R19   R(17,18)                1.5353         estimate D2E/DX2                !
 ! R20   R(18,19)                1.4851         estimate D2E/DX2                !
 ! R21   R(20,21)                1.0902         estimate D2E/DX2                !
 ! R22   R(20,22)                1.096          estimate D2E/DX2                !
 ! R23   R(20,23)                1.4706         estimate D2E/DX2                !
 ! R24   R(20,31)                1.5339         estimate D2E/DX2                !
 ! R25   R(23,28)                1.408          estimate D2E/DX2                !
 ! R26   R(24,34)                1.2464         estimate D2E/DX2                !
 ! R27   R(25,39)                1.3711         estimate D2E/DX2                !
 ! R28   R(25,46)                0.9974         estimate D2E/DX2                !
 ! R29   R(26,39)                1.2384         estimate D2E/DX2                !
 ! R30   R(27,29)                1.4061         estimate D2E/DX2                !
 ! R31   R(27,31)                1.4912         estimate D2E/DX2                !
 ! R32   R(27,32)                1.3561         estimate D2E/DX2                !
 ! R33   R(28,29)                1.4042         estimate D2E/DX2                !
 ! R34   R(28,36)                1.4102         estimate D2E/DX2                !
 ! R35   R(29,30)                1.403          estimate D2E/DX2                !
 ! R36   R(30,34)                1.486          estimate D2E/DX2                !
 ! R37   R(30,35)                1.3969         estimate D2E/DX2                !
 ! R38   R(31,37)                1.538          estimate D2E/DX2                !
 ! R39   R(31,40)                1.0944         estimate D2E/DX2                !
 ! R40   R(32,33)                1.3686         estimate D2E/DX2                !
 ! R41   R(32,41)                1.0845         estimate D2E/DX2                !
 ! R42   R(33,34)                1.4653         estimate D2E/DX2                !
 ! R43   R(33,39)                1.469          estimate D2E/DX2                !
 ! R44   R(35,38)                1.3697         estimate D2E/DX2                !
 ! R45   R(35,42)                1.0813         estimate D2E/DX2                !
 ! R46   R(36,38)                1.4198         estimate D2E/DX2                !
 ! R47   R(37,43)                1.0956         estimate D2E/DX2                !
 ! R48   R(37,44)                1.0934         estimate D2E/DX2                !
 ! R49   R(37,45)                1.0923         estimate D2E/DX2                !
 ! A1    A(11,10,12)           107.835          estimate D2E/DX2                !
 ! A2    A(11,10,13)           108.0937         estimate D2E/DX2                !
 ! A3    A(11,10,19)           108.8632         estimate D2E/DX2                !
 ! A4    A(12,10,13)           108.7474         estimate D2E/DX2                !
 ! A5    A(12,10,19)           113.7415         estimate D2E/DX2                !
 ! A6    A(13,10,19)           109.4079         estimate D2E/DX2                !
 ! A7    A(15,14,17)           115.8813         estimate D2E/DX2                !
 ! A8    A(15,14,36)           121.5837         estimate D2E/DX2                !
 ! A9    A(17,14,36)           122.5346         estimate D2E/DX2                !
 ! A10   A(8,15,9)             108.0403         estimate D2E/DX2                !
 ! A11   A(8,15,14)            111.6913         estimate D2E/DX2                !
 ! A12   A(8,15,16)            110.4642         estimate D2E/DX2                !
 ! A13   A(9,15,14)            108.8281         estimate D2E/DX2                !
 ! A14   A(9,15,16)            110.049          estimate D2E/DX2                !
 ! A15   A(14,15,16)           107.7566         estimate D2E/DX2                !
 ! A16   A(6,16,7)             108.0561         estimate D2E/DX2                !
 ! A17   A(6,16,15)            108.4689         estimate D2E/DX2                !
 ! A18   A(6,16,19)            109.6459         estimate D2E/DX2                !
 ! A19   A(7,16,15)            109.5415         estimate D2E/DX2                !
 ! A20   A(7,16,19)            108.5885         estimate D2E/DX2                !
 ! A21   A(15,16,19)           112.4464         estimate D2E/DX2                !
 ! A22   A(4,17,5)             108.2917         estimate D2E/DX2                !
 ! A23   A(4,17,14)            111.9191         estimate D2E/DX2                !
 ! A24   A(4,17,18)            109.9285         estimate D2E/DX2                !
 ! A25   A(5,17,14)            108.7423         estimate D2E/DX2                !
 ! A26   A(5,17,18)            109.1968         estimate D2E/DX2                !
 ! A27   A(14,17,18)           108.7201         estimate D2E/DX2                !
 ! A28   A(2,18,3)             107.847          estimate D2E/DX2                !
 ! A29   A(2,18,17)            109.5056         estimate D2E/DX2                !
 ! A30   A(2,18,19)            109.0689         estimate D2E/DX2                !
 ! A31   A(3,18,17)            107.9913         estimate D2E/DX2                !
 ! A32   A(3,18,19)            111.8487         estimate D2E/DX2                !
 ! A33   A(17,18,19)           110.5185         estimate D2E/DX2                !
 ! A34   A(10,19,16)           114.3555         estimate D2E/DX2                !
 ! A35   A(10,19,18)           111.389          estimate D2E/DX2                !
 ! A36   A(16,19,18)           112.1153         estimate D2E/DX2                !
 ! A37   A(21,20,22)           110.6296         estimate D2E/DX2                !
 ! A38   A(21,20,23)           105.5804         estimate D2E/DX2                !
 ! A39   A(21,20,31)           111.0115         estimate D2E/DX2                !
 ! A40   A(22,20,23)           110.2072         estimate D2E/DX2                !
 ! A41   A(22,20,31)           110.4363         estimate D2E/DX2                !
 ! A42   A(23,20,31)           108.8554         estimate D2E/DX2                !
 ! A43   A(20,23,28)           112.5729         estimate D2E/DX2                !
 ! A44   A(39,25,46)           107.1624         estimate D2E/DX2                !
 ! A45   A(29,27,31)           119.3681         estimate D2E/DX2                !
 ! A46   A(29,27,32)           119.5327         estimate D2E/DX2                !
 ! A47   A(31,27,32)           120.9146         estimate D2E/DX2                !
 ! A48   A(23,28,29)           120.1763         estimate D2E/DX2                !
 ! A49   A(23,28,36)           118.2539         estimate D2E/DX2                !
 ! A50   A(29,28,36)           121.5591         estimate D2E/DX2                !
 ! A51   A(27,29,28)           120.4223         estimate D2E/DX2                !
 ! A52   A(27,29,30)           118.9503         estimate D2E/DX2                !
 ! A53   A(28,29,30)           120.6172         estimate D2E/DX2                !
 ! A54   A(29,30,34)           123.0491         estimate D2E/DX2                !
 ! A55   A(29,30,35)           118.4164         estimate D2E/DX2                !
 ! A56   A(34,30,35)           118.5345         estimate D2E/DX2                !
 ! A57   A(20,31,27)           106.832          estimate D2E/DX2                !
 ! A58   A(20,31,37)           111.1108         estimate D2E/DX2                !
 ! A59   A(20,31,40)           109.5799         estimate D2E/DX2                !
 ! A60   A(27,31,37)           110.8677         estimate D2E/DX2                !
 ! A61   A(27,31,40)           107.2242         estimate D2E/DX2                !
 ! A62   A(37,31,40)           111.0625         estimate D2E/DX2                !
 ! A63   A(27,32,33)           124.5988         estimate D2E/DX2                !
 ! A64   A(27,32,41)           117.2104         estimate D2E/DX2                !
 ! A65   A(33,32,41)           118.1907         estimate D2E/DX2                !
 ! A66   A(32,33,34)           120.8783         estimate D2E/DX2                !
 ! A67   A(32,33,39)           113.7015         estimate D2E/DX2                !
 ! A68   A(34,33,39)           125.4178         estimate D2E/DX2                !
 ! A69   A(24,34,30)           120.5612         estimate D2E/DX2                !
 ! A70   A(24,34,33)           126.478          estimate D2E/DX2                !
 ! A71   A(30,34,33)           112.9608         estimate D2E/DX2                !
 ! A72   A(30,35,38)           120.5549         estimate D2E/DX2                !
 ! A73   A(30,35,42)           118.1821         estimate D2E/DX2                !
 ! A74   A(38,35,42)           121.247          estimate D2E/DX2                !
 ! A75   A(14,36,28)           122.9954         estimate D2E/DX2                !
 ! A76   A(14,36,38)           121.3342         estimate D2E/DX2                !
 ! A77   A(28,36,38)           115.6697         estimate D2E/DX2                !
 ! A78   A(31,37,43)           109.809          estimate D2E/DX2                !
 ! A79   A(31,37,44)           110.6286         estimate D2E/DX2                !
 ! A80   A(31,37,45)           109.173          estimate D2E/DX2                !
 ! A81   A(43,37,44)           108.8388         estimate D2E/DX2                !
 ! A82   A(43,37,45)           108.8247         estimate D2E/DX2                !
 ! A83   A(44,37,45)           109.5394         estimate D2E/DX2                !
 ! A84   A(1,38,35)            119.2757         estimate D2E/DX2                !
 ! A85   A(1,38,36)            117.5401         estimate D2E/DX2                !
 ! A86   A(35,38,36)           123.1723         estimate D2E/DX2                !
 ! A87   A(25,39,26)           121.8798         estimate D2E/DX2                !
 ! A88   A(25,39,33)           113.6998         estimate D2E/DX2                !
 ! A89   A(26,39,33)           124.4204         estimate D2E/DX2                !
 ! D1    D(11,10,19,16)       -172.2774         estimate D2E/DX2                !
 ! D2    D(11,10,19,18)         59.3246         estimate D2E/DX2                !
 ! D3    D(12,10,19,16)         67.4671         estimate D2E/DX2                !
 ! D4    D(12,10,19,18)        -60.9309         estimate D2E/DX2                !
 ! D5    D(13,10,19,16)        -54.3508         estimate D2E/DX2                !
 ! D6    D(13,10,19,18)        177.2512         estimate D2E/DX2                !
 ! D7    D(17,14,15,8)         -91.6052         estimate D2E/DX2                !
 ! D8    D(17,14,15,9)         149.2014         estimate D2E/DX2                !
 ! D9    D(17,14,15,16)         29.8927         estimate D2E/DX2                !
 ! D10   D(36,14,15,8)          88.6437         estimate D2E/DX2                !
 ! D11   D(36,14,15,9)         -30.5497         estimate D2E/DX2                !
 ! D12   D(36,14,15,16)       -149.8584         estimate D2E/DX2                !
 ! D13   D(15,14,17,4)         -91.7684         estimate D2E/DX2                !
 ! D14   D(15,14,17,5)         148.6418         estimate D2E/DX2                !
 ! D15   D(15,14,17,18)         29.8517         estimate D2E/DX2                !
 ! D16   D(36,14,17,4)          87.9801         estimate D2E/DX2                !
 ! D17   D(36,14,17,5)         -31.6097         estimate D2E/DX2                !
 ! D18   D(36,14,17,18)       -150.3998         estimate D2E/DX2                !
 ! D19   D(15,14,36,28)        147.2837         estimate D2E/DX2                !
 ! D20   D(15,14,36,38)        -32.4006         estimate D2E/DX2                !
 ! D21   D(17,14,36,28)        -32.4507         estimate D2E/DX2                !
 ! D22   D(17,14,36,38)        147.865          estimate D2E/DX2                !
 ! D23   D(8,15,16,6)         -179.134          estimate D2E/DX2                !
 ! D24   D(8,15,16,7)          -61.4045         estimate D2E/DX2                !
 ! D25   D(8,15,16,19)          59.4334         estimate D2E/DX2                !
 ! D26   D(9,15,16,6)          -59.9211         estimate D2E/DX2                !
 ! D27   D(9,15,16,7)           57.8083         estimate D2E/DX2                !
 ! D28   D(9,15,16,19)         178.6462         estimate D2E/DX2                !
 ! D29   D(14,15,16,6)          58.6076         estimate D2E/DX2                !
 ! D30   D(14,15,16,7)         176.3371         estimate D2E/DX2                !
 ! D31   D(14,15,16,19)        -62.8251         estimate D2E/DX2                !
 ! D32   D(6,16,19,10)         140.218          estimate D2E/DX2                !
 ! D33   D(6,16,19,18)         -91.7521         estimate D2E/DX2                !
 ! D34   D(7,16,19,10)          22.3601         estimate D2E/DX2                !
 ! D35   D(7,16,19,18)         150.39           estimate D2E/DX2                !
 ! D36   D(15,16,19,10)        -99.0235         estimate D2E/DX2                !
 ! D37   D(15,16,19,18)         29.0064         estimate D2E/DX2                !
 ! D38   D(4,17,18,2)          -62.6107         estimate D2E/DX2                !
 ! D39   D(4,17,18,3)         -179.7972         estimate D2E/DX2                !
 ! D40   D(4,17,18,19)          57.5645         estimate D2E/DX2                !
 ! D41   D(5,17,18,2)           56.0575         estimate D2E/DX2                !
 ! D42   D(5,17,18,3)          -61.129          estimate D2E/DX2                !
 ! D43   D(5,17,18,19)         176.2326         estimate D2E/DX2                !
 ! D44   D(14,17,18,2)         174.5616         estimate D2E/DX2                !
 ! D45   D(14,17,18,3)          57.3751         estimate D2E/DX2                !
 ! D46   D(14,17,18,19)        -65.2633         estimate D2E/DX2                !
 ! D47   D(2,18,19,10)         -76.3973         estimate D2E/DX2                !
 ! D48   D(2,18,19,16)         154.0165         estimate D2E/DX2                !
 ! D49   D(3,18,19,10)          42.8096         estimate D2E/DX2                !
 ! D50   D(3,18,19,16)         -86.7766         estimate D2E/DX2                !
 ! D51   D(17,18,19,10)        163.166          estimate D2E/DX2                !
 ! D52   D(17,18,19,16)         33.5798         estimate D2E/DX2                !
 ! D53   D(21,20,23,28)        178.2124         estimate D2E/DX2                !
 ! D54   D(22,20,23,28)        -62.29           estimate D2E/DX2                !
 ! D55   D(31,20,23,28)         58.966          estimate D2E/DX2                !
 ! D56   D(21,20,31,27)       -176.2776         estimate D2E/DX2                !
 ! D57   D(21,20,31,37)        -55.2313         estimate D2E/DX2                !
 ! D58   D(21,20,31,40)         67.8762         estimate D2E/DX2                !
 ! D59   D(22,20,31,27)         60.6368         estimate D2E/DX2                !
 ! D60   D(22,20,31,37)       -178.3169         estimate D2E/DX2                !
 ! D61   D(22,20,31,40)        -55.2094         estimate D2E/DX2                !
 ! D62   D(23,20,31,27)        -60.4791         estimate D2E/DX2                !
 ! D63   D(23,20,31,37)         60.5673         estimate D2E/DX2                !
 ! D64   D(23,20,31,40)       -176.3253         estimate D2E/DX2                !
 ! D65   D(20,23,28,29)        -28.4228         estimate D2E/DX2                !
 ! D66   D(20,23,28,36)        152.7515         estimate D2E/DX2                !
 ! D67   D(46,25,39,26)         -0.0296         estimate D2E/DX2                !
 ! D68   D(46,25,39,33)        179.9299         estimate D2E/DX2                !
 ! D69   D(31,27,29,28)         -5.3917         estimate D2E/DX2                !
 ! D70   D(31,27,29,30)        173.4558         estimate D2E/DX2                !
 ! D71   D(32,27,29,28)        179.5001         estimate D2E/DX2                !
 ! D72   D(32,27,29,30)         -1.6525         estimate D2E/DX2                !
 ! D73   D(29,27,31,20)         34.7636         estimate D2E/DX2                !
 ! D74   D(29,27,31,37)        -86.4371         estimate D2E/DX2                !
 ! D75   D(29,27,31,40)        152.1731         estimate D2E/DX2                !
 ! D76   D(32,27,31,20)       -150.1975         estimate D2E/DX2                !
 ! D77   D(32,27,31,37)         88.6017         estimate D2E/DX2                !
 ! D78   D(32,27,31,40)        -32.788          estimate D2E/DX2                !
 ! D79   D(29,27,32,33)          0.3452         estimate D2E/DX2                !
 ! D80   D(29,27,32,41)       -179.5192         estimate D2E/DX2                !
 ! D81   D(31,27,32,33)       -174.6855         estimate D2E/DX2                !
 ! D82   D(31,27,32,41)          5.45           estimate D2E/DX2                !
 ! D83   D(23,28,29,27)          0.6698         estimate D2E/DX2                !
 ! D84   D(23,28,29,30)       -178.1583         estimate D2E/DX2                !
 ! D85   D(36,28,29,27)        179.4559         estimate D2E/DX2                !
 ! D86   D(36,28,29,30)          0.6278         estimate D2E/DX2                !
 ! D87   D(23,28,36,14)         -1.9093         estimate D2E/DX2                !
 ! D88   D(23,28,36,38)        177.7916         estimate D2E/DX2                !
 ! D89   D(29,28,36,14)        179.2821         estimate D2E/DX2                !
 ! D90   D(29,28,36,38)         -1.0171         estimate D2E/DX2                !
 ! D91   D(27,29,30,34)          1.5138         estimate D2E/DX2                !
 ! D92   D(27,29,30,35)       -178.5053         estimate D2E/DX2                !
 ! D93   D(28,29,30,34)       -179.6411         estimate D2E/DX2                !
 ! D94   D(28,29,30,35)          0.3398         estimate D2E/DX2                !
 ! D95   D(29,30,34,24)        179.9204         estimate D2E/DX2                !
 ! D96   D(29,30,34,33)         -0.0955         estimate D2E/DX2                !
 ! D97   D(35,30,34,24)         -0.0605         estimate D2E/DX2                !
 ! D98   D(35,30,34,33)        179.9236         estimate D2E/DX2                !
 ! D99   D(29,30,35,38)         -0.8637         estimate D2E/DX2                !
 ! D100  D(29,30,35,42)       -179.4257         estimate D2E/DX2                !
 ! D101  D(34,30,35,38)        179.1181         estimate D2E/DX2                !
 ! D102  D(34,30,35,42)          0.5561         estimate D2E/DX2                !
 ! D103  D(20,31,37,43)         67.0111         estimate D2E/DX2                !
 ! D104  D(20,31,37,44)       -172.835          estimate D2E/DX2                !
 ! D105  D(20,31,37,45)        -52.2214         estimate D2E/DX2                !
 ! D106  D(27,31,37,43)       -174.3446         estimate D2E/DX2                !
 ! D107  D(27,31,37,44)        -54.1907         estimate D2E/DX2                !
 ! D108  D(27,31,37,45)         66.423          estimate D2E/DX2                !
 ! D109  D(40,31,37,43)        -55.2404         estimate D2E/DX2                !
 ! D110  D(40,31,37,44)         64.9135         estimate D2E/DX2                !
 ! D111  D(40,31,37,45)       -174.4728         estimate D2E/DX2                !
 ! D112  D(27,32,33,34)          1.1628         estimate D2E/DX2                !
 ! D113  D(27,32,33,39)       -179.3671         estimate D2E/DX2                !
 ! D114  D(41,32,33,34)       -178.974          estimate D2E/DX2                !
 ! D115  D(41,32,33,39)          0.4962         estimate D2E/DX2                !
 ! D116  D(32,33,34,24)        178.7667         estimate D2E/DX2                !
 ! D117  D(32,33,34,30)         -1.2163         estimate D2E/DX2                !
 ! D118  D(39,33,34,24)         -0.638          estimate D2E/DX2                !
 ! D119  D(39,33,34,30)        179.379          estimate D2E/DX2                !
 ! D120  D(32,33,39,25)       -179.7266         estimate D2E/DX2                !
 ! D121  D(32,33,39,26)          0.2317         estimate D2E/DX2                !
 ! D122  D(34,33,39,25)         -0.2846         estimate D2E/DX2                !
 ! D123  D(34,33,39,26)        179.6737         estimate D2E/DX2                !
 ! D124  D(30,35,38,1)        -178.2722         estimate D2E/DX2                !
 ! D125  D(30,35,38,36)          0.4456         estimate D2E/DX2                !
 ! D126  D(42,35,38,1)           0.2452         estimate D2E/DX2                !
 ! D127  D(42,35,38,36)        178.963          estimate D2E/DX2                !
 ! D128  D(14,36,38,1)          -1.0612         estimate D2E/DX2                !
 ! D129  D(14,36,38,35)       -179.7998         estimate D2E/DX2                !
 ! D130  D(28,36,38,1)         179.2325         estimate D2E/DX2                !
 ! D131  D(28,36,38,35)          0.4939         estimate D2E/DX2                !
 --------------------------------------------------------------------------------
 Trust Radius=3.00D-01 FncErr=1.00D-07 GrdErr=1.00D-06
 Number of steps in this run=    276 maximum allowed number of steps=    276.
 GradGradGradGradGradGradGradGradGradGradGradGradGradGradGradGradGradGrad

                          Input orientation:                          
 ---------------------------------------------------------------------
 Center     Atomic      Atomic             Coordinates (Angstroms)
 Number     Number       Type             X           Y           Z
 ---------------------------------------------------------------------
      1          9           0        1.682285   -2.848305    0.092718
      2          1           0        5.081271    1.349191   -1.748917
      3          1           0        4.594788   -0.362945   -1.771984
      4          1           0        3.264849    1.812547   -0.073801
      5          1           0        2.635872    1.136683   -1.585581
      6          1           0        4.395583    0.546998    1.832385
      7          1           0        5.465925   -0.865772    1.790487
      8          1           0        3.935640   -1.951667    0.111549
      9          1           0        3.081458   -1.550782    1.609016
     10          6           0        6.755436   -0.410920   -0.313874
     11          1           0        7.305235    0.164496   -1.067403
     12          1           0        6.564927   -1.419447   -0.729700
     13          1           0        7.392737   -0.509610    0.569996
     14          7           0        2.634688   -0.241934    0.011399
     15          6           0        3.588554   -1.125158    0.740092
     16          6           0        4.777084   -0.258747    1.194614
     17          6           0        3.237385    0.917162   -0.701069
     18          6           0        4.660082    0.540985   -1.138715
     19          7           0        5.528951    0.324235    0.046019
     20          6           0       -0.195287    2.776044   -0.711372
     21          1           0        0.239767    3.771649   -0.622224
     22          1           0       -0.307934    2.496793   -1.765246
     23          8           0        0.751666    1.869998   -0.044202
     24          8           0       -3.308762   -2.643351    0.007122
     25          8           0       -5.822413   -1.601785   -0.132048
     26          8           0       -6.042272    0.668282   -0.204762
     27          7           0       -2.010896    1.286260   -0.090804
     28          6           0        0.308429    0.533643   -0.038604
     29          6           0       -1.065809    0.245740   -0.054756
     30          6           0       -1.518359   -1.081484   -0.010556
     31          6           0       -1.546618    2.699715    0.010299
     32          6           0       -3.333459    0.987458   -0.116209
     33          6           0       -3.843677   -0.282419   -0.102744
     34          6           0       -2.958318   -1.447877   -0.032690
     35          6           0       -0.570290   -2.105190    0.056995
     36          6           0        1.276577   -0.490587    0.008899
     37          6           0       -1.414090    3.128950    1.481228
     38          6           0        0.768402   -1.815287    0.061520
     39          6           0       -5.311106   -0.329754   -0.151524
     40          1           0       -2.278974    3.319805   -0.515923
     41          1           0       -4.029040    1.818694   -0.151769
     42          1           0       -0.922993   -3.127088    0.081352
     43          1           0       -1.170503    4.195686    1.536197
     44          1           0       -2.348997    2.952082    2.019837
     45          1           0       -0.608917    2.558959    1.950091
     46          1           0       -6.815839   -1.520234   -0.167204
 ---------------------------------------------------------------------
                    Distance matrix (angstroms):
                    1          2          3          4          5
     1  F    0.000000
     2  H    5.706461   0.000000
     3  H    4.258732   1.780058   0.000000
     4  H    4.925016   2.513981   3.063548   0.000000
     5  H    4.427883   2.460044   2.474062   1.771407   0.000000
     6  H    4.681507   3.733551   3.722789   2.552199   3.889319
     7  H    4.596606   4.193018   3.701745   3.936203   4.839097
     8  H    2.425268   3.958468   2.550727   3.828005   3.756002
     9  H    2.437296   4.866704   3.890024   3.765300   4.198388
    10  C    5.642962   2.821377   2.607065   4.145556   4.580734
    11  H    6.483858   2.610360   2.849763   4.475269   4.797563
    12  H    5.153465   3.302332   2.466577   4.665459   4.764851
    13  H    6.189229   3.765020   3.651698   4.779785   5.475816
    14  N    2.776122   3.408249   2.652752   2.150640   2.109723
    15  C    2.649942   3.813892   2.811406   3.065504   3.381166
    16  C    4.183033   3.367843   2.974020   2.861117   3.776440
    17  C    4.150563   2.164382   2.151296   1.093588   1.091956
    18  C    4.676643   1.096788   1.105614   2.167392   2.156843
    19  N    4.986384   2.114887   2.156389   2.712119   3.419371
    20  C    5.983740   5.563674   5.824343   3.647926   3.386326
    21  H    6.812914   5.529729   6.114166   3.645541   3.689502
    22  H    5.998589   5.510062   5.675811   4.011727   3.247795
    23  O    4.811152   4.682176   4.768737   2.514014   2.542407
    24  O    4.995987   9.456041   8.416149   7.941910   7.222467
    25  O    7.610836  11.411085  10.618013   9.707697   9.008582
    26  O    8.492565  11.250834  10.801234   9.378113   8.799787
    27  N    5.546881   7.283689   7.012938   5.301957   4.883563
    28  C    3.652711   5.135203   4.709708   3.221374   2.858983
    29  C    4.140880   6.471042   5.946573   4.605415   4.103614
    30  C    3.657382   7.244667   6.402304   5.590930   4.965743
    31  C    6.419746   6.989111   7.090366   4.893297   4.741637
    32  C    6.317786   8.579293   8.211107   6.649830   6.149328
    33  C    6.095755   9.220994   8.602357   7.410861   6.796853
    34  C    4.848930   8.683549   7.826342   7.025657   6.355028
    35  C    2.372254   6.865436   5.749662   5.483982   4.846367
    36  C    2.393838   4.577160   3.768071   3.043763   2.652934
    37  C    6.873360   7.469344   7.673548   5.103283   5.456797
    38  C    1.379595   5.647339   4.484670   4.405876   3.861931
    39  C    7.437088  10.647630  10.037616   8.839825   8.207400
    40  H    7.355787   7.718601   7.898667   5.762054   5.483238
    41  H    7.379694   9.261160   9.041850   7.294308   6.851424
    42  H    2.620176   7.709614   6.443698   6.477815   5.798614
    43  H    7.735622   7.614406   8.060010   5.286189   5.795816
    44  H    7.321852   8.484200   8.578080   6.098945   6.414330
    45  H    6.159379   6.893797   7.033485   4.433885   5.005247
    46  H    8.605199  12.340042  11.580891  10.617741   9.919972
                    6          7          8          9         10
     6  H    0.000000
     7  H    1.772937   0.000000
     8  H    3.068575   2.517891   0.000000
     9  H    2.485458   2.487540   1.769956   0.000000
    10  C    3.330607   2.509594   3.241317   4.300570   0.000000
    11  H    4.125670   3.551345   4.149969   5.286368   1.095987
    12  H    3.890660   2.804586   2.811425   4.197785   1.107399
    13  H    3.419500   2.308474   3.773754   4.555297   1.094129
    14  N    2.653141   3.401504   2.150742   2.113070   4.137019
    15  C    2.154183   2.166825   1.094830   1.092397   3.413227
    16  C    1.096139   1.094553   2.178769   2.171689   2.492503
    17  C    2.810130   3.788548   3.062366   3.384014   3.780265
    18  C    2.982856   3.347921   2.881196   3.797047   2.444789
    19  N    2.127263   2.112642   2.778968   3.456714   1.474531
    20  C    5.702231   7.181326   6.331904   5.902769   7.656846
    21  H    5.804678   7.391859   6.852317   6.432877   7.748736
    22  H    6.234398   7.568853   6.427992   6.265500   7.775119
    23  O    4.306976   5.751066   4.976653   4.456770   6.428107
    24  O    8.536208   9.128818   7.278097   6.677925  10.313819
    25  O   10.624674  11.474512   9.767362   9.072642  12.635407
    26  O   10.635483  11.780193  10.320994   9.563288  12.843594
    27  N    6.729646   8.004583   6.773951   6.072089   8.931895
    28  C    4.495065   5.648336   4.399542   3.840465   6.521646
    29  C    5.786092   6.877785   5.465414   4.816166   7.853039
    30  C    6.404927   7.215990   5.524331   4.899140   8.306464
    31  C    6.577533   8.065825   7.190324   6.483958   8.871597
    32  C    7.983052   9.192340   7.844114   7.111274  10.187263
    33  C    8.504003   9.518052   7.959277   7.245437  10.601994
    34  C    7.844609   8.638906   6.913846   6.259767   9.772991
    35  C    5.903051   6.401331   4.508875   4.006420   7.528237
    36  C    3.758974   4.567872   3.035771   2.634764   5.488937
    37  C    6.367267   7.961661   7.503886   6.490468   9.082633
    38  C    4.676836   5.094863   3.170568   2.795520   6.160986
    39  C    9.946075  10.963718   9.391598   8.661729  12.067907
    40  H    7.599521   9.100662   8.173345   7.547994   9.776487
    41  H    8.748048  10.056494   8.815956   8.063059  11.013736
    42  H    6.697184   6.989490   4.998884   4.566632   8.154265
    43  H    6.661979   8.350162   8.117405   7.148872   9.352224
    44  H    7.163025   8.700668   8.196644   7.066428   9.982319
    45  H    5.395078   6.975526   6.661755   5.534001   8.257083
    46  H   11.574445  12.454019  10.763742  10.055465  13.617327
                   11         12         13         14         15
    11  H    0.000000
    12  H    1.780723   0.000000
    13  H    1.772893   1.789492   0.000000
    14  N    4.810718   4.169238   4.798199   0.000000
    15  C    4.329430   3.332520   3.857414   1.490281   0.000000
    16  C    3.418684   2.871688   2.700874   2.447476   1.539436
    17  C    4.153084   4.066091   4.573646   1.488072   2.524150
    18  C    2.672763   2.763878   3.389815   2.457223   2.730224
    19  N    2.102477   2.171500   2.107972   2.949323   2.519448
    20  C    7.950143   7.956317   8.367529   4.199922   5.625262
    21  H    7.945475   8.183317   8.421137   4.716564   6.086789
    22  H    7.992930   7.977814   8.590236   4.395010   5.880295
    23  O    6.848718   6.714489   7.081214   2.830039   4.199287
    24  O   11.031570   9.976501  10.926654   6.410259   7.100361
    25  O   13.278922  12.403089  13.278776   8.566932   9.463303
    26  O   13.384838  12.789669  13.508780   8.727248   9.841849
    27  N    9.434108   9.015197   9.596360   4.891551   6.152980
    28  C    7.081666   6.590595   7.186528   2.452652   3.757287
    29  C    8.432463   7.839421   8.515155   3.733079   4.916731
    30  C    8.973584   8.122247   8.948280   4.237113   5.161971
    31  C    9.270603   9.127555   9.514468   5.112399   6.444551
    32  C   10.712789  10.205274  10.851883   6.094790   7.287706
    33  C   11.199488  10.489278  11.258827   6.479497   7.527193
    34  C   10.440828   9.548760  10.410952   5.721709   6.600218
    35  C    8.272825   7.211134   8.137496   3.707517   4.327016
    36  C    6.158918   5.419867   6.141873   1.380688   2.506504
    37  C    9.555634   9.446736   9.572339   5.469539   6.608568
    38  C    6.922730   5.863652   6.770905   2.441511   2.981610
    39  C   12.659193  11.939928  12.725587   7.947949   8.979510
    40  H   10.105304  10.035975  10.458759   6.091644   7.467473
    41  H   11.490890  11.092867  11.678995   6.976968   8.215194
    42  H    8.936325   7.722874   8.731628   4.581059   4.979530
    43  H    9.739988   9.823486   9.818474   6.041271   7.182882
    44  H   10.512178  10.301857  10.439671   6.250814   7.315473
    45  H    8.801848   8.629776   8.680279   4.703669   5.714506
    46  H   14.249681  13.392963  14.263536   9.538260  10.451348
                   16         17         18         19         20
    16  C    0.000000
    17  C    2.710544   0.000000
    18  C    2.469349   1.535288   0.000000
    19  N    1.491456   2.482132   1.485095   0.000000
    20  C    6.129210   3.903689   5.362156   6.273110   0.000000
    21  H    6.335001   4.140051   5.499376   6.348754   1.090160
    22  H    6.497013   4.024549   5.375771   6.486133   1.096048
    23  O    4.719132   2.741928   4.270825   5.021949   1.470631
    24  O    8.513365   7.485374   8.657679   9.322728   6.291248
    25  O   10.766296   9.420659  10.746513  11.514978   7.153010
    26  O   10.948794   9.296252  10.743782  11.579053   6.235908
    27  N    7.079267   5.296519   6.793784   7.602204   2.429197
    28  C    4.702934   3.027330   4.488561   5.225406   2.394725
    29  C    5.996235   4.402954   5.835063   6.595997   2.755248
    30  C    6.462347   5.204661   6.486777   7.186364   4.137896
    31  C    7.081264   5.154631   6.671092   7.463770   1.533861
    32  C    8.309765   6.597196   8.071032   8.888672   3.660790
    33  C    8.717868   7.206832   8.606111   9.393419   4.799518
    34  C    7.921916   6.665349   7.951030   8.670658   5.092785
    35  C    5.770437   4.920128   5.982370   6.565285   4.955548
    36  C    3.703136   2.516064   3.718772   4.329896   3.654593
    37  C    7.063234   5.593804   7.103325   7.624439   2.533282
    38  C    4.447050   3.760811   4.705078   5.219255   4.754617
    39  C   10.177854   8.656414  10.057700  10.861563   6.010908
    40  H    8.094438   6.019733   7.500681   8.381701   2.162320
    41  H    9.147477   7.342712   8.837842   9.676142   3.990907
    42  H    6.477469   5.854647   6.790733   7.317135   6.000411
    43  H    7.438578   5.931573   7.382934   7.879813   2.831607
    44  H    7.859481   6.538493   8.057110   8.536018   3.482665
    45  H    6.125293   4.951584   6.432363   6.803889   2.702147
    46  H   11.740603  10.358244  11.699967  12.483644   7.911121
                   21         22         23         24         25
    21  H    0.000000
    22  H    1.797702   0.000000
    23  O    2.052420   2.116038   0.000000
    24  O    7.358013   6.210261   6.071246   0.000000
    25  O    8.115670   7.062234   7.435019   2.724458   0.000000
    26  O    7.019200   6.217813   6.901268   4.299289   2.281848
    27  N    3.394856   2.677541   2.823946   4.139552   4.782276
    28  C    3.290898   2.686104   1.407954   4.814504   6.492766
    29  C    3.802444   2.927010   2.437528   3.658075   5.103391
    30  C    5.197888   4.165109   3.723626   2.375981   4.337091
    31  C    2.177223   2.174414   2.444077   5.626146   6.066761
    32  C    4.558038   3.761810   4.179989   3.632987   3.591563
    33  C    5.777529   4.794727   5.074791   2.423263   2.378441
    34  C    6.149695   5.058330   4.977189   1.246416   2.869948
    35  C    5.971161   4.956575   4.190457   2.791296   5.279579
    36  C    4.431698   3.818731   2.418825   5.065543   7.186813
    37  C    2.751875   3.487520   2.932984   6.251578   6.664520
    38  C    5.653390   4.805165   3.686839   4.160759   6.597113
    39  C    6.917749   5.968685   6.450398   3.063867   1.371086
    40  H    2.561156   2.474501   3.392527   6.073983   6.076625
    41  H    4.717846   4.112147   4.782191   4.522598   3.862156
    42  H    7.031330   5.951156   5.271728   2.435448   5.135796
    43  H    2.612939   3.811796   3.406056   7.326844   7.618004
    44  H    3.788651   4.324359   3.878824   6.023375   6.118246
    45  H    2.967775   3.728027   2.510589   6.174813   6.987677
    46  H    8.831344   7.813007   8.293126   3.686648   0.997387
                   26         27         28         29         30
    26  O    0.000000
    27  N    4.080058   0.000000
    28  C    6.354301   2.438939   0.000000
    29  C    4.996622   1.406119   1.404165   0.000000
    30  C    4.854399   2.419761   2.438560   1.402954   0.000000
    31  C    4.938003   1.491184   2.852273   2.501480   3.781362
    32  C    2.728989   1.356135   3.670874   2.386663   2.754319
    33  C    2.397511   2.412464   4.232027   2.828039   2.460510
    34  C    3.744130   2.894217   3.820745   2.539767   1.486007
    35  C    6.140297   3.687699   2.782935   2.405182   1.396915
    36  C    7.413109   3.738262   1.410182   2.456217   2.856782
    37  C    5.506135   2.494588   3.465917   3.285338   4.468114
    38  C    7.254261   4.167409   2.395636   2.761464   2.402694
    39  C    1.238351   3.675129   5.686596   4.285219   3.869095
    40  H    4.614088   2.094731   3.832126   3.336813   4.495028
    41  H    2.319345   2.088087   4.525240   3.356238   3.838553
    42  H    6.379162   4.548715   3.864161   3.378593   2.132464
    43  H    6.261601   3.437754   4.251799   4.259597   5.510170
    44  H    4.879023   2.709996   4.141007   3.643459   4.591526
    45  H    6.143240   2.783983   2.983008   3.095019   4.233680
    46  H    2.321512   5.565045   7.415534   6.016158   5.317926
                   31         32         33         34         35
    31  C    0.000000
    32  C    2.478029   0.000000
    33  C    3.765950   1.368609   0.000000
    34  C    4.381468   2.465474   1.465285   0.000000
    35  C    4.903316   4.150852   3.750076   2.478464   0.000000
    36  C    4.260101   4.842799   5.125700   4.341943   2.453604
    37  C    1.537998   3.289646   4.477644   5.062009   5.489687
    38  C    5.074168   4.971140   4.862915   3.745972   1.369730
    39  C    4.834795   2.376422   1.469002   2.607668   5.066655
    40  H    1.094425   2.590666   3.949054   4.840022   5.716503
    41  H    2.639106   1.084459   2.109843   3.439638   5.234826
    42  H    5.860511   4.772721   4.081229   2.641080   1.081327
    43  H    2.169736   4.207321   5.466755   6.124336   6.499949
    44  H    2.178473   3.064573   4.147459   4.893238   5.708988
    45  H    2.159141   3.763288   4.769825   5.050331   5.033844
    46  H    6.753086   4.291630   3.220262   3.860544   6.276888
                   36         37         38         39         40
    36  C    0.000000
    37  C    4.744311   0.000000
    38  C    1.419803   5.587873   0.000000
    39  C    6.591598   5.460334   6.261998   0.000000
    40  H    5.237983   2.184734   5.999092   4.758770   0.000000
    41  H    5.788624   3.349838   6.022189   2.501904   2.334239
    42  H    3.434311   6.429529   2.140568   5.209112   6.614972
    43  H    5.502908   1.095574   6.485817   6.361808   2.491400
    44  H    5.388936   1.093359   6.023370   4.925378   2.563241
    45  H    4.077137   1.092257   4.959610   5.905254   3.073955
    46  H    8.159558   7.315130   7.593424   1.918778   6.643096
                   41         42         43         44         45
    41  H    0.000000
    42  H    5.844881   0.000000
    43  H    4.082959   7.469997   0.000000
    44  H    2.970351   6.538159   1.780255   0.000000
    45  H    4.082040   5.993493   1.779203   1.785298   0.000000
    46  H    4.349129   6.113051   8.212377   6.688605   7.723253
                   46
    46  H    0.000000
 Stoichiometry    C18H20FN3O4
 Framework group  C1[X(C18H20FN3O4)]
 Deg. of freedom   132
 Full point group                 C1      NOp   1
 Largest Abelian subgroup         C1      NOp   1
 Largest concise Abelian subgroup C1      NOp   1
                         Standard orientation:                         
 ---------------------------------------------------------------------
 Center     Atomic      Atomic             Coordinates (Angstroms)
 Number     Number       Type             X           Y           Z
 ---------------------------------------------------------------------
      1          9           0        1.682285   -2.848305    0.092718
      2          1           0        5.081271    1.349191   -1.748917
      3          1           0        4.594788   -0.362945   -1.771984
      4          1           0        3.264849    1.812547   -0.073801
      5          1           0        2.635872    1.136683   -1.585581
      6          1           0        4.395583    0.546998    1.832385
      7          1           0        5.465925   -0.865772    1.790487
      8          1           0        3.935640   -1.951667    0.111549
      9          1           0        3.081458   -1.550782    1.609016
     10          6           0        6.755436   -0.410920   -0.313874
     11          1           0        7.305235    0.164496   -1.067403
     12          1           0        6.564927   -1.419447   -0.729700
     13          1           0        7.392737   -0.509610    0.569996
     14          7           0        2.634688   -0.241934    0.011399
     15          6           0        3.588554   -1.125158    0.740092
     16          6           0        4.777084   -0.258747    1.194614
     17          6           0        3.237385    0.917162   -0.701069
     18          6           0        4.660082    0.540985   -1.138715
     19          7           0        5.528951    0.324235    0.046019
     20          6           0       -0.195287    2.776044   -0.711372
     21          1           0        0.239767    3.771649   -0.622224
     22          1           0       -0.307934    2.496793   -1.765246
     23          8           0        0.751666    1.869998   -0.044202
     24          8           0       -3.308762   -2.643351    0.007122
     25          8           0       -5.822413   -1.601785   -0.132048
     26          8           0       -6.042272    0.668282   -0.204762
     27          7           0       -2.010896    1.286260   -0.090804
     28          6           0        0.308429    0.533643   -0.038604
     29          6           0       -1.065809    0.245740   -0.054756
     30          6           0       -1.518359   -1.081484   -0.010556
     31          6           0       -1.546618    2.699715    0.010299
     32          6           0       -3.333459    0.987458   -0.116209
     33          6           0       -3.843677   -0.282419   -0.102744
     34          6           0       -2.958318   -1.447877   -0.032690
     35          6           0       -0.570290   -2.105190    0.056995
     36          6           0        1.276577   -0.490587    0.008899
     37          6           0       -1.414090    3.128950    1.481228
     38          6           0        0.768402   -1.815287    0.061520
     39          6           0       -5.311106   -0.329754   -0.151524
     40          1           0       -2.278974    3.319805   -0.515923
     41          1           0       -4.029040    1.818694   -0.151769
     42          1           0       -0.922993   -3.127088    0.081352
     43          1           0       -1.170503    4.195686    1.536197
     44          1           0       -2.348997    2.952082    2.019837
     45          1           0       -0.608917    2.558959    1.950091
     46          1           0       -6.815839   -1.520234   -0.167204
 ---------------------------------------------------------------------
 Rotational constants (GHZ):      0.4645130      0.1082301      0.0914281
 Standard basis: LANL2DZ (5D, 7F)
 There are   274 symmetry adapted cartesian basis functions of A   symmetry.
 There are   274 symmetry adapted basis functions of A   symmetry.
   274 basis functions,   730 primitive gaussians,   274 cartesian basis functions
    95 alpha electrons       95 beta electrons
       nuclear repulsion energy      2414.5269885323 Hartrees.
 NAtoms=   46 NActive=   46 NUniq=   46 SFac= 1.00D+00 NAtFMM=   60 NAOKFM=F Big=F
 Integral buffers will be    131072 words long.
 Raffenetti 2 integral format.
 Two-electron integral symmetry is turned on.
 One-electron integrals computed using PRISM.
 PrsmSu:  requested number of processors reduced to:   8 ShMem   1 Linda.
   1 Symmetry operations used in ECPInt.
 ECPInt:  NShTT=   14535 NPrTT=  111473 LenC2=   12831 LenP2D=   54243.
 LDataN:  DoStor=T MaxTD1= 2 Len=   12
 Number of processors reduced to   8 by ecpmxn.
 NBasis=   274 RedAO= T EigKep=  1.62D-04  NBF=   274
 NBsUse=   274 1.00D-06 EigRej= -1.00D+00 NBFU=   274
 ExpMin= 1.15D-01 ExpMax= 1.00D+04 ExpMxC= 3.50D+02 IAcc=3 IRadAn=         5 AccDes= 0.00D+00
 Harris functional with IExCor= 1009 and IRadAn=       5 diagonalized for initial guess.
 HarFok:  IExCor= 1009 AccDes= 0.00D+00 IRadAn=         5 IDoV= 1 UseB2=F ITyADJ=14
 ICtDFT=  3500011 ScaDFX=  1.000000  1.000000  1.000000  1.000000
 FoFCou: FMM=F IPFlag=           0 FMFlag=      100000 FMFlg1=           0
         NFxFlg=           0 DoJE=T BraDBF=F KetDBF=T FulRan=T
         wScrn=  0.000000 ICntrl=     500 IOpCl=  0 I1Cent=   200000004 NGrid=           0
         NMat0=    1 NMatS0=      1 NMatT0=    0 NMatD0=    1 NMtDS0=    0 NMtDT0=    0
 Petite list used in FoFCou.
 Requested convergence on RMS density matrix=1.00D-08 within 128 cycles.
 Requested convergence on MAX density matrix=1.00D-06.
 Requested convergence on             energy=1.00D-06.
 No special actions if energy rises.
 Integral accuracy reduced to 1.0D-05 until final iterations.
 Initial convergence to 1.0D-05 achieved.  Increase integral accuracy.
 SCF Done:  E(RM06) =  -1261.98037316     A.U. after   17 cycles
            NFock= 17  Conv=0.83D-08     -V/T= 2.0049

 **********************************************************************

            Population analysis using the SCF density.

 **********************************************************************

 Orbital symmetries:
       Occupied  (A) (A) (A) (A) (A) (A) (A) (A) (A) (A) (A) (A)
                 (A) (A) (A) (A) (A) (A) (A) (A) (A) (A) (A) (A)
                 (A) (A) (A) (A) (A) (A) (A) (A) (A) (A) (A) (A)
                 (A) (A) (A) (A) (A) (A) (A) (A) (A) (A) (A) (A)
                 (A) (A) (A) (A) (A) (A) (A) (A) (A) (A) (A) (A)
                 (A) (A) (A) (A) (A) (A) (A) (A) (A) (A) (A) (A)
                 (A) (A) (A) (A) (A) (A) (A) (A) (A) (A) (A) (A)
                 (A) (A) (A) (A) (A) (A) (A) (A) (A) (A) (A)
       Virtual   (A) (A) (A) (A) (A) (A) (A) (A) (A) (A) (A) (A)
                 (A) (A) (A) (A) (A) (A) (A) (A) (A) (A) (A) (A)
                 (A) (A) (A) (A) (A) (A) (A) (A) (A) (A) (A) (A)
                 (A) (A) (A) (A) (A) (A) (A) (A) (A) (A) (A) (A)
                 (A) (A) (A) (A) (A) (A) (A) (A) (A) (A) (A) (A)
                 (A) (A) (A) (A) (A) (A) (A) (A) (A) (A) (A) (A)
                 (A) (A) (A) (A) (A) (A) (A) (A) (A) (A) (A) (A)
                 (A) (A) (A) (A) (A) (A) (A) (A) (A) (A) (A) (A)
                 (A) (A) (A) (A) (A) (A) (A) (A) (A) (A) (A) (A)
                 (A) (A) (A) (A) (A) (A) (A) (A) (A) (A) (A) (A)
                 (A) (A) (A) (A) (A) (A) (A) (A) (A) (A) (A) (A)
                 (A) (A) (A) (A) (A) (A) (A) (A) (A) (A) (A) (A)
                 (A) (A) (A) (A) (A) (A) (A) (A) (A) (A) (A) (A)
                 (A) (A) (A) (A) (A) (A) (A) (A) (A) (A) (A) (A)
                 (A) (A) (A) (A) (A) (A) (A) (A) (A) (A) (A)
 The electronic state is 1-A.
 Alpha  occ. eigenvalues --  -24.80096 -19.27625 -19.26068 -19.21586 -19.18719
 Alpha  occ. eigenvalues --  -14.48775 -14.42660 -14.39353 -10.40106 -10.35056
 Alpha  occ. eigenvalues --  -10.34401 -10.34214 -10.34139 -10.33820 -10.33546
 Alpha  occ. eigenvalues --  -10.33148 -10.32932 -10.28972 -10.28823 -10.28005
 Alpha  occ. eigenvalues --  -10.27958 -10.27420 -10.27346 -10.26841 -10.26793
 Alpha  occ. eigenvalues --  -10.26661  -1.25821  -1.13314  -1.11334  -1.04710
 Alpha  occ. eigenvalues --   -1.04419  -1.03099  -0.97740  -0.92930  -0.89286
 Alpha  occ. eigenvalues --   -0.85682  -0.82243  -0.80343  -0.78510  -0.77582
 Alpha  occ. eigenvalues --   -0.74699  -0.73563  -0.69807  -0.68935  -0.67817
 Alpha  occ. eigenvalues --   -0.67060  -0.65092  -0.63450  -0.60373  -0.59141
 Alpha  occ. eigenvalues --   -0.57686  -0.56456  -0.55842  -0.53623  -0.53103
 Alpha  occ. eigenvalues --   -0.52860  -0.52279  -0.50625  -0.50149  -0.49339
 Alpha  occ. eigenvalues --   -0.49082  -0.48283  -0.47910  -0.47441  -0.46763
 Alpha  occ. eigenvalues --   -0.46454  -0.45799  -0.44531  -0.43808  -0.43764
 Alpha  occ. eigenvalues --   -0.43539  -0.42956  -0.42377  -0.41895  -0.41343
 Alpha  occ. eigenvalues --   -0.40956  -0.39945  -0.39724  -0.39402  -0.39001
 Alpha  occ. eigenvalues --   -0.38856  -0.38544  -0.37610  -0.36692  -0.36445
 Alpha  occ. eigenvalues --   -0.35668  -0.33547  -0.32724  -0.30955  -0.29215
 Alpha  occ. eigenvalues --   -0.27974  -0.24485  -0.23953  -0.21826  -0.21305
 Alpha virt. eigenvalues --   -0.05499  -0.04161   0.00450   0.03068   0.05004
 Alpha virt. eigenvalues --    0.08812   0.09589   0.09931   0.10398   0.10948
 Alpha virt. eigenvalues --    0.11284   0.12042   0.12198   0.13400   0.13734
 Alpha virt. eigenvalues --    0.14047   0.14408   0.15227   0.15445   0.15949
 Alpha virt. eigenvalues --    0.16174   0.16595   0.16897   0.17732   0.17957
 Alpha virt. eigenvalues --    0.18772   0.18953   0.19260   0.19634   0.20295
 Alpha virt. eigenvalues --    0.20452   0.21403   0.21545   0.21695   0.22182
 Alpha virt. eigenvalues --    0.22552   0.23107   0.23495   0.23880   0.24398
 Alpha virt. eigenvalues --    0.24922   0.26021   0.26198   0.26703   0.27185
 Alpha virt. eigenvalues --    0.27241   0.27642   0.28233   0.28955   0.29888
 Alpha virt. eigenvalues --    0.30161   0.30437   0.31455   0.31592   0.32491
 Alpha virt. eigenvalues --    0.33001   0.33323   0.34352   0.34539   0.34946
 Alpha virt. eigenvalues --    0.35308   0.35944   0.36399   0.37281   0.37409
 Alpha virt. eigenvalues --    0.38164   0.38739   0.39146   0.39761   0.40356
 Alpha virt. eigenvalues --    0.40856   0.41410   0.41509   0.41723   0.42190
 Alpha virt. eigenvalues --    0.43368   0.43926   0.44408   0.45071   0.45224
 Alpha virt. eigenvalues --    0.46386   0.46830   0.47065   0.47748   0.48066
 Alpha virt. eigenvalues --    0.49960   0.50114   0.50553   0.51202   0.52050
 Alpha virt. eigenvalues --    0.52459   0.54086   0.55328   0.56199   0.56948
 Alpha virt. eigenvalues --    0.57946   0.59290   0.60183   0.61196   0.62480
 Alpha virt. eigenvalues --    0.63727   0.65600   0.67035   0.67564   0.67789
 Alpha virt. eigenvalues --    0.69571   0.70224   0.71354   0.72542   0.74108
 Alpha virt. eigenvalues --    0.75457   0.75747   0.77298   0.77907   0.81273
 Alpha virt. eigenvalues --    0.84275   0.84788   0.85336   0.87790   0.88508
 Alpha virt. eigenvalues --    0.89745   0.90443   0.91573   0.91879   0.92793
 Alpha virt. eigenvalues --    0.93483   0.95570   0.97017   0.98746   1.00120
 Alpha virt. eigenvalues --    1.00677   1.02761   1.03179   1.03910   1.05197
 Alpha virt. eigenvalues --    1.05488   1.05827   1.06964   1.07401   1.08029
 Alpha virt. eigenvalues --    1.09062   1.10755   1.10798   1.11868   1.12744
 Alpha virt. eigenvalues --    1.14463   1.14866   1.16349   1.16761   1.17036
 Alpha virt. eigenvalues --    1.18455   1.19221   1.20896   1.22446   1.23428
 Alpha virt. eigenvalues --    1.26612   1.28248   1.31087   1.34190   1.37062
 Alpha virt. eigenvalues --    1.41162   1.43009   1.44898   1.45694   1.48520
 Alpha virt. eigenvalues --    1.48718   1.55514   1.57651   1.60290   1.60639
 Alpha virt. eigenvalues --    1.63732   1.80093   1.85248   1.88422   1.92360
 Alpha virt. eigenvalues --    1.97821   2.01186   2.08208   2.24940
          Condensed to atoms (all electrons):
               1          2          3          4          5          6
     1  F    9.067260   0.000000   0.000014  -0.000003  -0.000003  -0.000006
     2  H    0.000000   0.543747  -0.052083  -0.004140   0.000309   0.000485
     3  H    0.000014  -0.052083   0.636744   0.004915  -0.002337  -0.000684
     4  H   -0.000003  -0.004140   0.004915   0.514109  -0.027789  -0.003816
     5  H   -0.000003   0.000309  -0.002337  -0.027789   0.526152   0.000088
     6  H   -0.000006   0.000485  -0.000684  -0.003816   0.000088   0.540660
     7  H    0.000005  -0.000133   0.000078   0.000024  -0.000002  -0.029553
     8  H   -0.003357   0.000009  -0.001320  -0.000299   0.000198   0.003576
     9  H   -0.006205   0.000000   0.000032   0.000146  -0.000129  -0.002122
    10  C    0.000003  -0.004194   0.001962   0.000348  -0.000294   0.005564
    11  H    0.000000   0.002944  -0.003052  -0.000021   0.000000   0.000002
    12  H    0.000000  -0.001314   0.012219   0.000010   0.000007  -0.000396
    13  H    0.000000   0.000079  -0.000085  -0.000001   0.000001   0.000293
    14  N    0.001620   0.003837   0.001159  -0.050504  -0.044171   0.001921
    15  C    0.015426  -0.001398   0.007233   0.003645   0.003952  -0.061084
    16  C    0.000906   0.004751  -0.001958   0.000618   0.000146   0.374468
    17  C    0.000029  -0.012216  -0.044525   0.370189   0.364534   0.003210
    18  C   -0.000117   0.347774   0.339152  -0.045367  -0.030595  -0.002929
    19  N   -0.000013  -0.049644  -0.076064   0.000198   0.003032  -0.053744
    20  C   -0.000001   0.000000   0.000004   0.001117  -0.000210  -0.000005
    21  H    0.000000   0.000000   0.000000  -0.000061   0.000049   0.000000
    22  H    0.000000   0.000000   0.000000  -0.000013   0.000082   0.000000
    23  O   -0.000009   0.000015  -0.000005  -0.001339  -0.005446   0.000006
    24  O    0.000003   0.000000   0.000000   0.000000   0.000000   0.000000
    25  O    0.000000   0.000000   0.000000   0.000000   0.000000   0.000000
    26  O    0.000000   0.000000   0.000000   0.000000   0.000000   0.000000
    27  N    0.000000   0.000000   0.000000   0.000002  -0.000012   0.000000
    28  C    0.000010   0.000045  -0.000353  -0.002633   0.011091   0.000129
    29  C   -0.001049   0.000001  -0.000014  -0.000471   0.001527   0.000009
    30  C   -0.002316   0.000000   0.000001   0.000005   0.000007   0.000000
    31  C    0.000000   0.000000   0.000000   0.000031   0.000049   0.000000
    32  C    0.000000   0.000000   0.000000   0.000000   0.000002   0.000000
    33  C   -0.000003   0.000000   0.000000   0.000000   0.000000   0.000000
    34  C    0.000008   0.000000   0.000000   0.000000   0.000000   0.000000
    35  C   -0.066123   0.000000   0.000017   0.000026  -0.000074  -0.000010
    36  C   -0.046795  -0.000063   0.000919   0.002163  -0.007180   0.000530
    37  C    0.000000   0.000000   0.000000  -0.000013  -0.000001   0.000000
    38  C    0.293891  -0.000012   0.000379   0.000181  -0.001284  -0.000286
    39  C    0.000000   0.000000   0.000000   0.000000   0.000000   0.000000
    40  H    0.000000   0.000000   0.000000   0.000000   0.000000   0.000000
    41  H    0.000000   0.000000   0.000000   0.000000   0.000000   0.000000
    42  H    0.000687   0.000000   0.000000   0.000000   0.000000   0.000000
    43  H    0.000000   0.000000   0.000000   0.000000   0.000000   0.000000
    44  H    0.000000   0.000000   0.000000   0.000000   0.000000   0.000000
    45  H    0.000000   0.000000   0.000000   0.000002   0.000001   0.000000
    46  H    0.000000   0.000000   0.000000   0.000000   0.000000   0.000000
               7          8          9         10         11         12
     1  F    0.000005  -0.003357  -0.006205   0.000003   0.000000   0.000000
     2  H   -0.000133   0.000009   0.000000  -0.004194   0.002944  -0.001314
     3  H    0.000078  -0.001320   0.000032   0.001962  -0.003052   0.012219
     4  H    0.000024  -0.000299   0.000146   0.000348  -0.000021   0.000010
     5  H   -0.000002   0.000198  -0.000129  -0.000294   0.000000   0.000007
     6  H   -0.029553   0.003576  -0.002122   0.005564   0.000002  -0.000396
     7  H    0.523558  -0.001831  -0.000313  -0.005871   0.000142   0.001029
     8  H   -0.001831   0.529078  -0.027514   0.002931  -0.000019   0.000166
     9  H   -0.000313  -0.027514   0.501884  -0.000204   0.000001  -0.000025
    10  C   -0.005871   0.002931  -0.000204   5.381280   0.373815   0.352085
    11  H    0.000142  -0.000019   0.000001   0.373815   0.487192  -0.036028
    12  H    0.001029   0.000166  -0.000025   0.352085  -0.036028   0.580444
    13  H    0.002305   0.000036  -0.000003   0.371821  -0.014742  -0.030232
    14  N    0.003951  -0.051494  -0.046206  -0.000222   0.000015  -0.000143
    15  C   -0.022157   0.374465   0.371338   0.000696  -0.000692   0.007618
    16  C    0.348956  -0.048560  -0.027109  -0.075156   0.004444  -0.003056
    17  C   -0.000256   0.002175   0.003980   0.004588   0.000231   0.000478
    18  C    0.007264   0.001645  -0.000193  -0.072121   0.002085  -0.010736
    19  N   -0.038622  -0.005220   0.003940   0.255087  -0.040818  -0.061277
    20  C    0.000000  -0.000001   0.000000   0.000000   0.000000   0.000000
    21  H    0.000000   0.000000   0.000000   0.000000   0.000000   0.000000
    22  H    0.000000   0.000000   0.000000   0.000000   0.000000   0.000000
    23  O    0.000000  -0.000006   0.000003   0.000000   0.000000   0.000000
    24  O    0.000000   0.000000   0.000000   0.000000   0.000000   0.000000
    25  O    0.000000   0.000000   0.000000   0.000000   0.000000   0.000000
    26  O    0.000000   0.000000   0.000000   0.000000   0.000000   0.000000
    27  N    0.000000   0.000000   0.000000   0.000000   0.000000   0.000000
    28  C    0.000014  -0.000214  -0.000520   0.000000   0.000000   0.000000
    29  C    0.000000   0.000004  -0.000013   0.000000   0.000000   0.000000
    30  C    0.000000   0.000022  -0.000024   0.000000   0.000000   0.000000
    31  C    0.000000   0.000000   0.000000   0.000000   0.000000   0.000000
    32  C    0.000000   0.000000   0.000000   0.000000   0.000000   0.000000
    33  C    0.000000   0.000000   0.000000   0.000000   0.000000   0.000000
    34  C    0.000000   0.000000  -0.000001   0.000000   0.000000   0.000000
    35  C    0.000000  -0.000200   0.000788   0.000000   0.000000   0.000000
    36  C   -0.000081  -0.001819  -0.004106   0.000061   0.000000   0.000001
    37  C    0.000000   0.000000   0.000000   0.000000   0.000000   0.000000
    38  C    0.000004   0.000885   0.005871   0.000011   0.000000   0.000007
    39  C    0.000000   0.000000   0.000000   0.000000   0.000000   0.000000
    40  H    0.000000   0.000000   0.000000   0.000000   0.000000   0.000000
    41  H    0.000000   0.000000   0.000000   0.000000   0.000000   0.000000
    42  H    0.000000   0.000000   0.000001   0.000000   0.000000   0.000000
    43  H    0.000000   0.000000   0.000000   0.000000   0.000000   0.000000
    44  H    0.000000   0.000000   0.000000   0.000000   0.000000   0.000000
    45  H    0.000000   0.000000   0.000000   0.000000   0.000000   0.000000
    46  H    0.000000   0.000000   0.000000   0.000000   0.000000   0.000000
              13         14         15         16         17         18
     1  F    0.000000   0.001620   0.015426   0.000906   0.000029  -0.000117
     2  H    0.000079   0.003837  -0.001398   0.004751  -0.012216   0.347774
     3  H   -0.000085   0.001159   0.007233  -0.001958  -0.044525   0.339152
     4  H   -0.000001  -0.050504   0.003645   0.000618   0.370189  -0.045367
     5  H    0.000001  -0.044171   0.003952   0.000146   0.364534  -0.030595
     6  H    0.000293   0.001921  -0.061084   0.374468   0.003210  -0.002929
     7  H    0.002305   0.003951  -0.022157   0.348956  -0.000256   0.007264
     8  H    0.000036  -0.051494   0.374465  -0.048560   0.002175   0.001645
     9  H   -0.000003  -0.046206   0.371338  -0.027109   0.003980  -0.000193
    10  C    0.371821  -0.000222   0.000696  -0.075156   0.004588  -0.072121
    11  H   -0.014742   0.000015  -0.000692   0.004444   0.000231   0.002085
    12  H   -0.030232  -0.000143   0.007618  -0.003056   0.000478  -0.010736
    13  H    0.486822   0.000000  -0.000815  -0.004140  -0.000350   0.004967
    14  N    0.000000   6.888509   0.272750  -0.070717   0.289969  -0.078251
    15  C   -0.000815   0.272750   5.303354   0.240712  -0.075012   0.001697
    16  C   -0.004140  -0.070717   0.240712   5.428505   0.013421  -0.097125
    17  C   -0.000350   0.289969  -0.075012   0.013421   5.250371   0.253084
    18  C    0.004967  -0.078251   0.001697  -0.097125   0.253084   5.411033
    19  N   -0.034517  -0.013548  -0.073083   0.314517  -0.061597   0.330089
    20  C    0.000000  -0.000171  -0.000054   0.000025  -0.000308  -0.000247
    21  H    0.000000   0.000018   0.000000  -0.000001  -0.000286  -0.000015
    22  H    0.000000  -0.000047   0.000001   0.000000   0.000250   0.000028
    23  O    0.000000   0.003211  -0.000160  -0.000036   0.003106   0.000292
    24  O    0.000000   0.000000   0.000000   0.000000   0.000000   0.000000
    25  O    0.000000   0.000000   0.000000   0.000000   0.000000   0.000000
    26  O    0.000000   0.000000   0.000000   0.000000   0.000000   0.000000
    27  N    0.000000  -0.000011   0.000001   0.000000  -0.000037   0.000000
    28  C    0.000000  -0.051299   0.007653  -0.000681  -0.011577   0.002430
    29  C    0.000000  -0.001849   0.001101  -0.000083  -0.000865   0.000259
    30  C    0.000000   0.002041  -0.000361  -0.000012   0.000045  -0.000011
    31  C    0.000000  -0.000114   0.000008  -0.000002   0.000176  -0.000008
    32  C    0.000000   0.000006   0.000001   0.000000   0.000000   0.000000
    33  C    0.000000  -0.000004  -0.000001   0.000000   0.000000   0.000000
    34  C    0.000000   0.000071   0.000001   0.000000  -0.000006   0.000000
    35  C    0.000000   0.007429  -0.003647   0.000135   0.000546  -0.000163
    36  C    0.000000   0.206107  -0.035060   0.002370  -0.046782   0.004312
    37  C    0.000000   0.000005   0.000000   0.000000  -0.000051   0.000001
    38  C    0.000000  -0.009771  -0.024820   0.001470   0.006872  -0.002466
    39  C    0.000000   0.000000   0.000000   0.000000   0.000000   0.000000
    40  H    0.000000   0.000000   0.000000   0.000000  -0.000001   0.000000
    41  H    0.000000   0.000000   0.000000   0.000000   0.000000   0.000000
    42  H    0.000000  -0.000053   0.000032   0.000000   0.000001   0.000000
    43  H    0.000000   0.000000   0.000000   0.000000   0.000000   0.000000
    44  H    0.000000   0.000000   0.000000   0.000000   0.000000   0.000000
    45  H    0.000000   0.000003   0.000005  -0.000001   0.000024   0.000000
    46  H    0.000000   0.000000   0.000000   0.000000   0.000000   0.000000
              19         20         21         22         23         24
     1  F   -0.000013  -0.000001   0.000000   0.000000  -0.000009   0.000003
     2  H   -0.049644   0.000000   0.000000   0.000000   0.000015   0.000000
     3  H   -0.076064   0.000004   0.000000   0.000000  -0.000005   0.000000
     4  H    0.000198   0.001117  -0.000061  -0.000013  -0.001339   0.000000
     5  H    0.003032  -0.000210   0.000049   0.000082  -0.005446   0.000000
     6  H   -0.053744  -0.000005   0.000000   0.000000   0.000006   0.000000
     7  H   -0.038622   0.000000   0.000000   0.000000   0.000000   0.000000
     8  H   -0.005220  -0.000001   0.000000   0.000000  -0.000006   0.000000
     9  H    0.003940   0.000000   0.000000   0.000000   0.000003   0.000000
    10  C    0.255087   0.000000   0.000000   0.000000   0.000000   0.000000
    11  H   -0.040818   0.000000   0.000000   0.000000   0.000000   0.000000
    12  H   -0.061277   0.000000   0.000000   0.000000   0.000000   0.000000
    13  H   -0.034517   0.000000   0.000000   0.000000   0.000000   0.000000
    14  N   -0.013548  -0.000171   0.000018  -0.000047   0.003211   0.000000
    15  C   -0.073083  -0.000054   0.000000   0.000001  -0.000160   0.000000
    16  C    0.314517   0.000025  -0.000001   0.000000  -0.000036   0.000000
    17  C   -0.061597  -0.000308  -0.000286   0.000250   0.003106   0.000000
    18  C    0.330089  -0.000247  -0.000015   0.000028   0.000292   0.000000
    19  N    6.723397   0.000000   0.000000   0.000000  -0.000007   0.000000
    20  C    0.000000   5.395775   0.347222   0.339284   0.280334   0.000000
    21  H    0.000000   0.347222   0.511218  -0.033681  -0.039267   0.000000
    22  H    0.000000   0.339284  -0.033681   0.539061  -0.045205   0.000000
    23  O   -0.000007   0.280334  -0.039267  -0.045205   8.078802   0.000000
    24  O    0.000000   0.000000   0.000000   0.000000   0.000000   7.786823
    25  O    0.000000   0.000000   0.000000   0.000000   0.000000  -0.006401
    26  O    0.000000  -0.000001   0.000000   0.000000   0.000000   0.000010
    27  N    0.000000  -0.050615   0.005174  -0.010727  -0.006670   0.000277
    28  C    0.000039  -0.067820   0.002811  -0.008024   0.273022  -0.000195
    29  C    0.000002  -0.001535  -0.003720   0.019487  -0.040196  -0.009095
    30  C    0.000000  -0.003949  -0.000166   0.002187  -0.009111  -0.132888
    31  C    0.000000   0.214658  -0.019395  -0.040513  -0.047115   0.000002
    32  C    0.000000  -0.005334   0.000351  -0.001160   0.000190   0.001892
    33  C    0.000000  -0.000952   0.000020  -0.000134   0.000174  -0.070460
    34  C    0.000000  -0.000385  -0.000004   0.000062  -0.000340   0.675292
    35  C   -0.000002   0.000471   0.000001  -0.000033   0.000486   0.030602
    36  C   -0.000905  -0.003870   0.000196   0.000102  -0.083807   0.000085
    37  C    0.000000  -0.074354  -0.004438   0.006179  -0.019096   0.000000
    38  C   -0.000125  -0.000408   0.000013  -0.000070  -0.000068   0.001833
    39  C    0.000000  -0.000010   0.000000   0.000001   0.000000  -0.007704
    40  H    0.000000  -0.030648   0.001591  -0.000198   0.003561   0.000000
    41  H    0.000000   0.000417  -0.000008   0.000044  -0.000008  -0.000057
    42  H    0.000000  -0.000002   0.000000   0.000000   0.000002   0.010871
    43  H    0.000000  -0.002227   0.000451   0.000039   0.000040   0.000000
    44  H    0.000000   0.005472   0.000045  -0.000059   0.000025   0.000000
    45  H    0.000000  -0.008203  -0.000528   0.000207   0.010099   0.000000
    46  H    0.000000   0.000000   0.000000   0.000000   0.000000   0.000389
              25         26         27         28         29         30
     1  F    0.000000   0.000000   0.000000   0.000010  -0.001049  -0.002316
     2  H    0.000000   0.000000   0.000000   0.000045   0.000001   0.000000
     3  H    0.000000   0.000000   0.000000  -0.000353  -0.000014   0.000001
     4  H    0.000000   0.000000   0.000002  -0.002633  -0.000471   0.000005
     5  H    0.000000   0.000000  -0.000012   0.011091   0.001527   0.000007
     6  H    0.000000   0.000000   0.000000   0.000129   0.000009   0.000000
     7  H    0.000000   0.000000   0.000000   0.000014   0.000000   0.000000
     8  H    0.000000   0.000000   0.000000  -0.000214   0.000004   0.000022
     9  H    0.000000   0.000000   0.000000  -0.000520  -0.000013  -0.000024
    10  C    0.000000   0.000000   0.000000   0.000000   0.000000   0.000000
    11  H    0.000000   0.000000   0.000000   0.000000   0.000000   0.000000
    12  H    0.000000   0.000000   0.000000   0.000000   0.000000   0.000000
    13  H    0.000000   0.000000   0.000000   0.000000   0.000000   0.000000
    14  N    0.000000   0.000000  -0.000011  -0.051299  -0.001849   0.002041
    15  C    0.000000   0.000000   0.000001   0.007653   0.001101  -0.000361
    16  C    0.000000   0.000000   0.000000  -0.000681  -0.000083  -0.000012
    17  C    0.000000   0.000000  -0.000037  -0.011577  -0.000865   0.000045
    18  C    0.000000   0.000000   0.000000   0.002430   0.000259  -0.000011
    19  N    0.000000   0.000000   0.000000   0.000039   0.000002   0.000000
    20  C    0.000000  -0.000001  -0.050615  -0.067820  -0.001535  -0.003949
    21  H    0.000000   0.000000   0.005174   0.002811  -0.003720  -0.000166
    22  H    0.000000   0.000000  -0.010727  -0.008024   0.019487   0.002187
    23  O    0.000000   0.000000  -0.006670   0.273022  -0.040196  -0.009111
    24  O   -0.006401   0.000010   0.000277  -0.000195  -0.009095  -0.132888
    25  O    8.081319  -0.083869   0.000007  -0.000004  -0.000400  -0.000898
    26  O   -0.083869   7.889280   0.000904  -0.000022  -0.000571   0.000064
    27  N    0.000007   0.000904   6.761956  -0.061798   0.189018  -0.015932
    28  C   -0.000004  -0.000022  -0.061798   5.569810   0.338155  -0.179604
    29  C   -0.000400  -0.000571   0.189018   0.338155   5.706967   0.124681
    30  C   -0.000898   0.000064  -0.015932  -0.179604   0.124681   5.878194
    31  C    0.000001   0.000322   0.223625  -0.001045  -0.059033   0.007238
    32  C   -0.005624   0.008163   0.431663  -0.007280  -0.136537   0.019913
    33  C   -0.029435  -0.065237  -0.066899  -0.001462   0.033563  -0.166098
    34  C    0.001762  -0.004341  -0.010844  -0.007048  -0.034147   0.052521
    35  C    0.000174   0.000028   0.013655  -0.116390  -0.184019   0.440822
    36  C    0.000000   0.000000  -0.009322   0.305466  -0.107445  -0.129591
    37  C    0.000000   0.000002  -0.078689   0.000585  -0.002649  -0.001082
    38  C    0.000001   0.000000   0.000853  -0.173993  -0.100513  -0.101764
    39  C    0.250410   0.588486   0.009605  -0.000654  -0.002814  -0.025187
    40  H    0.000000  -0.000006  -0.045202   0.001370   0.000993   0.000272
    41  H    0.000344   0.013150  -0.039303   0.000027  -0.006622  -0.000129
    42  H    0.000000   0.000000  -0.000066   0.000654   0.002213  -0.007120
    43  H    0.000000   0.000000   0.005110  -0.000609   0.000251   0.000015
    44  H    0.000000   0.000001  -0.003885  -0.000339  -0.000610  -0.000048
    45  H    0.000000   0.000000  -0.003178  -0.000720   0.005628   0.000959
    46  H    0.244928   0.003264   0.000001   0.000000   0.000008   0.000060
              31         32         33         34         35         36
     1  F    0.000000   0.000000  -0.000003   0.000008  -0.066123  -0.046795
     2  H    0.000000   0.000000   0.000000   0.000000   0.000000  -0.000063
     3  H    0.000000   0.000000   0.000000   0.000000   0.000017   0.000919
     4  H    0.000031   0.000000   0.000000   0.000000   0.000026   0.002163
     5  H    0.000049   0.000002   0.000000   0.000000  -0.000074  -0.007180
     6  H    0.000000   0.000000   0.000000   0.000000  -0.000010   0.000530
     7  H    0.000000   0.000000   0.000000   0.000000   0.000000  -0.000081
     8  H    0.000000   0.000000   0.000000   0.000000  -0.000200  -0.001819
     9  H    0.000000   0.000000   0.000000  -0.000001   0.000788  -0.004106
    10  C    0.000000   0.000000   0.000000   0.000000   0.000000   0.000061
    11  H    0.000000   0.000000   0.000000   0.000000   0.000000   0.000000
    12  H    0.000000   0.000000   0.000000   0.000000   0.000000   0.000001
[...]
    40  H    0.000000  -0.031379   0.001459  -0.000214   0.003545   0.000000
    41  H    0.000000   0.000470  -0.000008   0.000041  -0.000009  -0.000055
    42  H    0.000000  -0.000002   0.000000   0.000000   0.000002   0.009486
    43  H    0.000000  -0.002459   0.000476   0.000052   0.000027   0.000000
    44  H    0.000000   0.005365   0.000052  -0.000059  -0.000009   0.000000
    45  H    0.000000  -0.007350  -0.000406   0.000152   0.007673   0.000000
    46  H    0.000000   0.000000   0.000000   0.000000   0.000000   0.000316
              25         26         27         28         29         30
     1  F    0.000000   0.000000   0.000000   0.000526  -0.001043  -0.001673
     2  H    0.000000   0.000000   0.000000   0.000056   0.000002   0.000000
     3  H    0.000000   0.000000   0.000000  -0.000326  -0.000015   0.000001
     4  H    0.000000   0.000000   0.000002  -0.001907  -0.000437   0.000005
     5  H    0.000000   0.000000  -0.000013   0.012284   0.001735   0.000014
     6  H    0.000000   0.000000   0.000000   0.000061   0.000007   0.000000
     7  H    0.000000   0.000000   0.000000   0.000011   0.000000   0.000000
     8  H    0.000000   0.000000   0.000000  -0.000495  -0.000003   0.000030
     9  H    0.000000   0.000000   0.000000  -0.000459  -0.000043  -0.000020
    10  C    0.000000   0.000000   0.000000  -0.000005   0.000000   0.000000
    11  H    0.000000   0.000000   0.000000   0.000000   0.000000   0.000000
    12  H    0.000000   0.000000   0.000000   0.000000   0.000000   0.000000
    13  H    0.000000   0.000000   0.000000   0.000000   0.000000   0.000000
    14  N    0.000000   0.000000  -0.000017  -0.058074  -0.002545   0.002006
    15  C    0.000000   0.000000   0.000000   0.008325   0.001293  -0.000354
    16  C    0.000000   0.000000   0.000000  -0.000379  -0.000078  -0.000013
    17  C    0.000000   0.000000  -0.000041  -0.011188  -0.001179   0.000029
    18  C    0.000000   0.000000  -0.000001   0.001605   0.000220  -0.000012
    19  N    0.000000   0.000000   0.000000   0.000070   0.000003   0.000000
    20  C    0.000000  -0.000001  -0.048798  -0.069351  -0.000718  -0.003512
    21  H    0.000000   0.000000   0.005285   0.002566  -0.003787  -0.000168
    22  H    0.000000   0.000000  -0.010851  -0.006908   0.018372   0.001893
    23  O    0.000000   0.000000  -0.005990   0.275420  -0.043838  -0.008825
    24  O   -0.005283   0.000010   0.000267  -0.000196  -0.008717  -0.130504
    25  O    8.068161  -0.086660   0.000007  -0.000004  -0.000339  -0.000757
    26  O   -0.086660   7.902240   0.000948  -0.000019  -0.000500   0.000005
    27  N    0.000007   0.000948   6.765987  -0.060757   0.187228  -0.014712
    28  C   -0.000004  -0.000019  -0.060757   5.559098   0.334128  -0.171701
    29  C   -0.000339  -0.000500   0.187228   0.334128   5.715980   0.127563
    30  C   -0.000757   0.000005  -0.014712  -0.171701   0.127563   5.855750
    31  C   -0.000001   0.000298   0.222635  -0.004143  -0.053699   0.007790
    32  C   -0.006011   0.009176   0.428367  -0.007134  -0.131459   0.018414
    33  C   -0.028125  -0.068725  -0.067313  -0.002337   0.025872  -0.158993
    34  C    0.003582  -0.004078  -0.010992  -0.006097  -0.030483   0.049271
    35  C    0.000143   0.000025   0.013372  -0.108176  -0.179141   0.439321
    36  C    0.000000   0.000000  -0.009078   0.302819  -0.106283  -0.124261
    37  C    0.000000   0.000004  -0.081618  -0.000865  -0.002333  -0.000649
    38  C    0.000001   0.000000   0.000900  -0.175285  -0.094563  -0.097248
    39  C    0.256882   0.589695   0.009288  -0.000571  -0.001859  -0.025548
    40  H    0.000000  -0.000005  -0.046821   0.001272   0.000951   0.000275
    41  H    0.000320   0.012508  -0.040472  -0.000066  -0.006650   0.000201
    42  H    0.000000   0.000000  -0.000064   0.000614   0.001378  -0.011256
    43  H    0.000000   0.000000   0.005374  -0.000518   0.000163   0.000011
    44  H    0.000000   0.000002  -0.004276  -0.000280  -0.000793  -0.000058
    45  H    0.000000   0.000000  -0.003489  -0.000665   0.005564   0.000947
    46  H    0.249271   0.003056   0.000001   0.000000   0.000007   0.000044
              31         32         33         34         35         36
     1  F    0.000000   0.000000  -0.000002  -0.000010  -0.064116  -0.048003
     2  H    0.000000   0.000000   0.000000   0.000000   0.000000  -0.000076
     3  H    0.000000   0.000000   0.000000   0.000000   0.000018   0.000803
     4  H    0.000045   0.000000   0.000000   0.000000   0.000025   0.001245
     5  H    0.000032   0.000002   0.000000   0.000000  -0.000100  -0.008501
     6  H    0.000000   0.000000   0.000000   0.000000  -0.000007   0.000407
     7  H    0.000000   0.000000   0.000000   0.000000   0.000000  -0.000082
     8  H    0.000000   0.000000   0.000000   0.000000  -0.000064  -0.004305
     9  H    0.000000   0.000000   0.000000   0.000000   0.000888  -0.003803
    10  C    0.000000   0.000000   0.000000   0.000000   0.000000   0.000049
    11  H    0.000000   0.000000   0.000000   0.000000   0.000000   0.000001
    12  H    0.000000   0.000000   0.000000   0.000000   0.000000  -0.000003
    13  H    0.000000   0.000000   0.000000   0.000000   0.000000   0.000000
    14  N   -0.000145   0.000006  -0.000003   0.000066   0.007676   0.210116
    15  C    0.000007   0.000001  -0.000001   0.000000  -0.003922  -0.038621
    16  C   -0.000001   0.000000   0.000000   0.000000   0.000087   0.003654
    17  C    0.000153  -0.000001   0.000000  -0.000006   0.000633  -0.050674
    18  C   -0.000008   0.000000   0.000000   0.000000  -0.000151   0.005488
    19  N    0.000000   0.000000   0.000000   0.000000  -0.000003  -0.000792
    20  C    0.210801  -0.005426  -0.000970  -0.000331   0.000448  -0.003189
    21  H   -0.018585   0.000402   0.000021  -0.000004   0.000002   0.000163
    22  H   -0.041030  -0.001270  -0.000118   0.000050  -0.000044   0.000355
    23  O   -0.047999   0.000283   0.000164  -0.000334   0.000517  -0.080577
    24  O    0.000002   0.001970  -0.071649   0.671751   0.030418   0.000067
    25  O   -0.000001  -0.006011  -0.028125   0.003582   0.000143   0.000000
    26  O    0.000298   0.009176  -0.068725  -0.004078   0.000025   0.000000
    27  N    0.222635   0.428367  -0.067313  -0.010992   0.013372  -0.009078
    28  C   -0.004143  -0.007134  -0.002337  -0.006097  -0.108176   0.302819
    29  C   -0.053699  -0.131459   0.025872  -0.030483  -0.179141  -0.106283
    30  C    0.007790   0.018414  -0.158993   0.049271   0.439321  -0.124261
    31  C    5.292255  -0.044567  -0.003232   0.000821  -0.000108  -0.002471
    32  C   -0.044567   5.514212   0.276962  -0.072425   0.006369  -0.001039
    33  C   -0.003232   0.276962   5.921400   0.053716  -0.023596   0.000420
    34  C    0.000821  -0.072425   0.053716   5.273651  -0.026173   0.001512
    35  C   -0.000108   0.006369  -0.023596  -0.026173   6.008787  -0.190119
    36  C   -0.002471  -0.001039   0.000420   0.001512  -0.190119   5.692519
    37  C    0.301200  -0.004250  -0.000232   0.000304  -0.000041   0.000745
    38  C   -0.000208   0.000376  -0.001245  -0.012946   0.420993   0.305243
    39  C    0.000971  -0.014644   0.074943  -0.041007   0.000601  -0.000008
    40  H    0.334052   0.001076   0.000876  -0.000066   0.000020   0.000025
    41  H    0.004860   0.311664  -0.012677   0.003562   0.000067  -0.000004
    42  H    0.000005  -0.000131   0.002505   0.005701   0.320706  -0.001015
    43  H   -0.024463   0.000092  -0.000003   0.000000   0.000000  -0.000024
    44  H   -0.028231   0.004259   0.000143   0.000013   0.000003  -0.000028
    45  H   -0.036579  -0.000787  -0.000095   0.000022   0.000046  -0.000073
    46  H    0.000000  -0.000315   0.005120   0.001446  -0.000004   0.000000
              37         38         39         40         41         42
     1  F    0.000000   0.293282   0.000000   0.000000   0.000000   0.000280
     2  H    0.000000  -0.000016   0.000000   0.000000   0.000000   0.000000
     3  H    0.000000   0.000406   0.000000   0.000000   0.000000   0.000000
     4  H   -0.000011   0.000076   0.000000   0.000000   0.000000   0.000000
     5  H    0.000000  -0.001647   0.000000   0.000000   0.000000   0.000000
     6  H    0.000000  -0.000213   0.000000   0.000000   0.000000   0.000000
     7  H    0.000000   0.000018   0.000000   0.000000   0.000000   0.000000
     8  H    0.000000   0.002720   0.000000   0.000000   0.000000   0.000000
     9  H    0.000000   0.006229   0.000000   0.000000   0.000000   0.000000
    10  C    0.000000   0.000023   0.000000   0.000000   0.000000   0.000000
    11  H    0.000000   0.000000   0.000000   0.000000   0.000000   0.000000
    12  H    0.000000   0.000008   0.000000   0.000000   0.000000   0.000000
    13  H    0.000000   0.000000   0.000000   0.000000   0.000000   0.000000
    14  N    0.000013  -0.006365   0.000000   0.000000   0.000000  -0.000054
    15  C    0.000001  -0.024510   0.000000   0.000000   0.000000   0.000035
    16  C    0.000000   0.000695   0.000000   0.000000   0.000000   0.000000
    17  C   -0.000038   0.007328   0.000000  -0.000001   0.000000   0.000000
    18  C    0.000001  -0.002046   0.000000   0.000000   0.000000   0.000000
    19  N    0.000000  -0.000186   0.000000   0.000000   0.000000   0.000000
    20  C   -0.072293  -0.000421  -0.000006  -0.031379   0.000470  -0.000002
    21  H   -0.005314   0.000012   0.000000   0.001459  -0.000008   0.000000
    22  H    0.006474  -0.000047   0.000001  -0.000214   0.000041   0.000000
    23  O   -0.013752   0.000149   0.000000   0.003545  -0.000009   0.000002
    24  O    0.000000   0.001838  -0.007711   0.000000  -0.000055   0.009486
    25  O    0.000000   0.000001   0.256882   0.000000   0.000320   0.000000
    26  O    0.000004   0.000000   0.589695  -0.000005   0.012508   0.000000
    27  N   -0.081618   0.000900   0.009288  -0.046821  -0.040472  -0.000064
    28  C   -0.000865  -0.175285  -0.000571   0.001272  -0.000066   0.000614
    29  C   -0.002333  -0.094563  -0.001859   0.000951  -0.006650   0.001378
    30  C   -0.000649  -0.097248  -0.025548   0.000275   0.000201  -0.011256
    31  C    0.301200  -0.000208   0.000971   0.334052   0.004860   0.000005
    32  C   -0.004250   0.000376  -0.014644   0.001076   0.311664  -0.000131
    33  C   -0.000232  -0.001245   0.074943   0.000876  -0.012677   0.002505
    34  C    0.000304  -0.012946  -0.041007  -0.000066   0.003562   0.005701
    35  C   -0.000041   0.420993   0.000601   0.000020   0.000067   0.320706
    36  C    0.000745   0.305243  -0.000008   0.000025  -0.000004  -0.001015
    37  C    5.447386   0.000019   0.000016  -0.044444  -0.001162   0.000000
    38  C    0.000019   5.114742   0.000019  -0.000002   0.000002  -0.043169
    39  C    0.000016   0.000019   4.991635  -0.000004  -0.005627  -0.000013
    40  H   -0.044444  -0.000002  -0.000004   0.545735   0.001842   0.000000
    41  H   -0.001162   0.000002  -0.005627   0.001842   0.453840   0.000000
    42  H    0.000000  -0.043169  -0.000013   0.000000   0.000000   0.417022
    43  H    0.364474   0.000000   0.000000  -0.002340   0.000026   0.000000
    44  H    0.369035   0.000001   0.000017  -0.003295  -0.000468   0.000000
    45  H    0.371985  -0.000043   0.000000   0.003478   0.000030   0.000000
    46  H    0.000000   0.000000  -0.029000   0.000000   0.000001   0.000000
              43         44         45         46
     1  F    0.000000   0.000000   0.000000   0.000000
     2  H    0.000000   0.000000   0.000000   0.000000
     3  H    0.000000   0.000000   0.000000   0.000000
     4  H    0.000000   0.000000   0.000001   0.000000
     5  H    0.000000   0.000000   0.000000   0.000000
     6  H    0.000000   0.000000   0.000000   0.000000
     7  H    0.000000   0.000000   0.000000   0.000000
     8  H    0.000000   0.000000   0.000000   0.000000
     9  H    0.000000   0.000000   0.000000   0.000000
    10  C    0.000000   0.000000   0.000000   0.000000
    11  H    0.000000   0.000000   0.000000   0.000000
    12  H    0.000000   0.000000   0.000000   0.000000
    13  H    0.000000   0.000000   0.000000   0.000000
    14  N    0.000000   0.000000   0.000002   0.000000
    15  C    0.000000   0.000000   0.000005   0.000000
    16  C    0.000000   0.000000  -0.000001   0.000000
    17  C    0.000000   0.000000   0.000011   0.000000
    18  C    0.000000   0.000000   0.000000   0.000000
    19  N    0.000000   0.000000   0.000000   0.000000
    20  C   -0.002459   0.005365  -0.007350   0.000000
    21  H    0.000476   0.000052  -0.000406   0.000000
    22  H    0.000052  -0.000059   0.000152   0.000000
    23  O    0.000027  -0.000009   0.007673   0.000000
    24  O    0.000000   0.000000   0.000000   0.000316
    25  O    0.000000   0.000000   0.000000   0.249271
    26  O    0.000000   0.000002   0.000000   0.003056
    27  N    0.005374  -0.004276  -0.003489   0.000001
    28  C   -0.000518  -0.000280  -0.000665   0.000000
    29  C    0.000163  -0.000793   0.005564   0.000007
    30  C    0.000011  -0.000058   0.000947   0.000044
    31  C   -0.024463  -0.028231  -0.036579   0.000000
    32  C    0.000092   0.004259  -0.000787  -0.000315
    33  C   -0.000003   0.000143  -0.000095   0.005120
    34  C    0.000000   0.000013   0.000022   0.001446
    35  C    0.000000   0.000003   0.000046  -0.000004
    36  C   -0.000024  -0.000028  -0.000073   0.000000
    37  C    0.364474   0.369035   0.371985   0.000000
    38  C    0.000000   0.000001  -0.000043   0.000000
    39  C    0.000000   0.000017   0.000000  -0.029000
    40  H   -0.002340  -0.003295   0.003478   0.000000
    41  H    0.000026  -0.000468   0.000030   0.000001
    42  H    0.000000   0.000000   0.000000   0.000000
    43  H    0.479811  -0.018746  -0.018901   0.000000
    44  H   -0.018746   0.467279  -0.019849   0.000000
    45  H   -0.018901  -0.019849   0.456937   0.000000
    46  H    0.000000   0.000000   0.000000   0.363037
 Mulliken charges:
               1
     1  F   -0.259545
     2  H    0.220369
     3  H    0.176887
     4  H    0.236091
     5  H    0.207656
     6  H    0.223266
     7  H    0.213408
     8  H    0.225547
     9  H    0.223607
    10  C   -0.595369
    11  H    0.222177
    12  H    0.187853
    13  H    0.220205
    14  N   -0.250177
    15  C   -0.315842
    16  C   -0.411444
    17  C   -0.319006
    18  C   -0.363740
    19  N   -0.109968
    20  C   -0.337624
    21  H    0.230952
    22  H    0.229540
    23  O   -0.342718
    24  O   -0.285732
    25  O   -0.451187
    26  O   -0.357980
    27  N   -0.234357
    28  C    0.189048
    29  C    0.250039
    30  C    0.246689
    31  C   -0.070457
    32  C   -0.284171
    33  C    0.077173
    34  C    0.139484
    35  C   -0.655401
    36  C    0.147398
    37  C   -0.634653
    38  C    0.305081
    39  C    0.201931
    40  H    0.233962
    41  H    0.277765
    42  H    0.297971
    43  H    0.216949
    44  H    0.229921
    45  H    0.241384
    46  H    0.407019
 Sum of Mulliken charges =   0.00000
 Mulliken charges with hydrogens summed into heavy atoms:
               1
     1  F   -0.259545
    10  C    0.034866
    14  N   -0.250177
    15  C    0.133312
    16  C    0.025230
    17  C    0.124741
    18  C    0.033516
    19  N   -0.109968
    20  C    0.122868
    23  O   -0.342718
    24  O   -0.285732
    25  O   -0.044168
    26  O   -0.357980
    27  N   -0.234357
    28  C    0.189048
    29  C    0.250039
    30  C    0.246689
    31  C    0.163505
    32  C   -0.006406
    33  C    0.077173
    34  C    0.139484
    35  C   -0.357430
    36  C    0.147398
    37  C    0.053600
    38  C    0.305081
    39  C    0.201931
 Electronic spatial extent (au):  <R**2>=          11319.4690
 Charge=              0.0000 electrons
 Dipole moment (field-independent basis, Debye):
    X=              4.6545    Y=              6.5420    Z=             -0.5549  Tot=              8.0480
 Quadrupole moment (field-independent basis, Debye-Ang):
   XX=           -160.6537   YY=           -152.4844   ZZ=           -145.6168
   XY=            -14.0817   XZ=             -1.2723   YZ=             -3.5219
 Traceless Quadrupole moment (field-independent basis, Debye-Ang):
   XX=             -7.7354   YY=              0.4339   ZZ=              7.3015
   XY=            -14.0817   XZ=             -1.2723   YZ=             -3.5219
 Octapole moment (field-independent basis, Debye-Ang**2):
  XXX=            109.4387  YYY=             89.5854  ZZZ=              1.4305  XYY=             10.8918
  XXY=            -66.1812  XXZ=             -3.4228  XZZ=             11.4389  YZZ=              2.2065
  YYZ=             -4.4102  XYZ=            -15.4515
 Hexadecapole moment (field-independent basis, Debye-Ang**3):
 XXXX=         -11103.9601 YYYY=          -2418.5277 ZZZZ=           -490.5782 XXXY=            253.8269
 XXXZ=            -20.1701 YYYX=           -157.6393 YYYZ=            -11.6677 ZZZX=             12.0003
 ZZZY=            -10.2132 XXYY=          -2537.2406 XXZZ=          -1928.8242 YYZZ=           -480.7777
 XXYZ=            -29.6486 YYXZ=             -4.5914 ZZXY=              0.7319
 N-N= 2.412123089423D+03 E-N=-7.772557566453D+03  KE= 1.255824178700D+03
 1\1\GINC-NODE043\FOpt\RM06\LANL2DZ\C18H20F1N3O4\SUPERCOMPUTO1\21-Jul-2
 020\0\\#opt M06/lanl2dz integral=ultrafine geom=connectivity\\Title Ca
 rd Required\\0,1\F,1.6872842524,-2.8638278448,0.0561429166\H,5.0869229
 309,1.2796431665,-1.817155897\H,4.6059551281,-0.4337490819,-1.78814547
 06\H,3.2838215357,1.8085562505,-0.162120162\H,2.6406298177,1.071737947
 6,-1.6368821969\H,4.4373329962,0.6501007746,1.7894509141\H,5.483981737
 ,-0.7753542457,1.8060931334\H,3.941980542,-1.9411590281,0.2173989683\H
 ,3.0915347037,-1.4415451942,1.6881812062\C,6.7502101743,-0.4242975721,
 -0.3222989979\H,7.270683111,0.0834901488,-1.1432684076\H,6.5640760339,
 -1.472584952,-0.6397397945\H,7.4231996701,-0.438318653,0.5413778368\N,
 2.6587875101,-0.2339540182,0.0132139503\C,3.5988142876,-1.0677220958,0
 .7915557617\C,4.7958546929,-0.1926521347,1.1825706607\C,3.2539918583,0
 .8815972008,-0.7496078865\C,4.6661373184,0.4927606924,-1.1772500258\N,
 5.5263814652,0.303726472,0.0005442156\C,-0.1760410186,2.7876810433,-0.
 6502589828\H,0.2537909727,3.7808504142,-0.5083209605\H,-0.2631513617,2
 .5665656184,-1.7235512307\O,0.7559656315,1.860337746,-0.0394176297\O,-
 3.3219502303,-2.6431989248,-0.000572159\O,-5.867082046,-1.5680881271,-
 0.1893727194\O,-6.0485934288,0.6972392453,-0.1754740453\N,-1.999663218
 4,1.2822459081,-0.1029286936\C,0.3222895673,0.5315702237,-0.0610047242
 \C,-1.0568384744,0.2362312921,-0.0743489602\C,-1.5162645461,-1.0950584
 793,-0.0224217049\C,-1.5376205882,2.6832493284,0.033431978\C,-3.325641
 1901,0.9976755664,-0.1151800145\C,-3.8526148113,-0.2774154255,-0.11136
 35987\C,-2.9601090146,-1.4445360993,-0.0454252412\C,-0.563503132,-2.12
 2541689,0.0506823987\C,1.3000849432,-0.4889562366,0.004364434\C,-1.475
 2174346,3.0885283447,1.5075659988\C,0.7771606921,-1.8106684914,0.05878
 94778\C,-5.3236327642,-0.3188452599,-0.158081517\H,-2.2528596949,3.317
 7000574,-0.5050251706\H,-4.0101636515,1.8445863442,-0.1309726303\H,-0.
 9029667435,-3.1537534667,0.0690514789\H,-1.1937100466,4.1431224193,1.6
 013034798\H,-2.4484631913,2.9462644276,1.9888383752\H,-0.7307691728,2.
 4852556316,2.0379714098\H,-6.8469778126,-1.5007772439,-0.2202057734\\V
 ersion=ES64L-G09RevD.01\State=1-A\HF=-1261.9835787\RMSD=4.499e-09\RMSF
 =1.942e-06\Dipole=1.8358552,2.5726258,-0.1919027\Quadrupole=-5.7935432
 ,0.4214671,5.3720761,-10.4499158,-1.0535093,-2.6592405\PG=C01 [X(C18H2
 0F1N3O4)]\\@


 SUCCESS IS COUNTED SWEETEST
 BY THOSE WHO NE'ER SUCCEED.
 TO COMPREHEND NECTAR
 REQUIRES SOREST NEED.
           EMILY DICKINSON
 Job cpu time:       0 days  4 hours 25 minutes 54.9 seconds.
 File lengths (MBytes):  RWF=     50 Int=      0 D2E=      0 Chk=      8 Scr=      1
 Normal termination of Gaussian 09 at Tue Jul 21 16:22:29 2020.
