 Entering Gaussian System, Link 0=g09
 Input=acido_nalidixico.gjf
 Output=acido_nalidixico.log
 Initial command:
 /usr/local/cluster_programs/g09/l1.exe "/tmp/scratch/63986.prometeo/Gau-1705.inp" -scrdir="/tmp/scratch/63986.prometeo/"
 Entering Link 1 = /usr/local/cluster_programs/g09/l1.exe PID=      1706.
  
 Copyright (c) 1988,1990,1992,1993,1995,1998,2003,2009,2013,
            Gaussian, Inc.  All Rights Reserved.
  
 This is part of the Gaussian(R) 09 program.  It is based on
 the Gaussian(R) 03 system (copyright 2003, Gaussian, Inc.),
 the Gaussian(R) 98 system (copyright 1998, Gaussian, Inc.),
 the Gaussian(R) 94 system (copyright 1995, Gaussian, Inc.),
 the Gaussian 92(TM) system (copyright 1992, Gaussian, Inc.),
 the Gaussian 90(TM) system (copyright 1990, Gaussian, Inc.),
 the Gaussian 88(TM) system (copyright 1988, Gaussian, Inc.),
 the Gaussian 86(TM) system (copyright 1986, Carnegie Mellon
 University), and the Gaussian 82(TM) system (copyright 1983,
 Carnegie Mellon University). Gaussian is a federally registered
 trademark of Gaussian, Inc.
  
 This software contains proprietary and confidential information,
 including trade secrets, belonging to Gaussian, Inc.
  
 This software is provided under written license and may be
 used, copied, transmitted, or stored only in accord with that
 written license.
  
 The following legend is applicable only to US Government
 contracts under FAR:
  
                    RESTRICTED RIGHTS LEGEND
  
 Use, reproduction and disclosure by the US Government is
 subject to restrictions as set forth in subparagraphs (a)
 and (c) of the Commercial Computer Software - Restricted
 Rights clause in FAR 52.227-19.
  
 Gaussian, Inc.
 340 Quinnipiac St., Bldg. 40, Wallingford CT 06492
  
  
 ---------------------------------------------------------------
 Warning -- This program may not be used in any manner that
 competes with the business of Gaussian, Inc. or will provide
 assistance to any competitor of Gaussian, Inc.  The licensee
 of this program is prohibited from giving any competitor of
 Gaussian, Inc. access to this program.  By using this program,
 the user acknowledges that Gaussian, Inc. is engaged in the
 business of creating and licensing software in the field of
 computational chemistry and represents and warrants to the
 licensee that it is not a competitor of Gaussian, Inc. and that
 it will not use this program in any manner prohibited above.
 ---------------------------------------------------------------
  

 Cite this work as:
 Gaussian 09, Revision D.01,
 M. J. Frisch, G. W. Trucks, H. B. Schlegel, G. E. Scuseria, 
 M. A. Robb, J. R. Cheeseman, G. Scalmani, V. Barone, B. Mennucci, 
 G. A. Petersson, H. Nakatsuji, M. Caricato, X. Li, H. P. Hratchian, 
 A. F. Izmaylov, J. Bloino, G. Zheng, J. L. Sonnenberg, M. Hada, 
 M. Ehara, K. Toyota, R. Fukuda, J. Hasegawa, M. Ishida, T. Nakajima, 
 Y. Honda, O. Kitao, H. Nakai, T. Vreven, J. A. Montgomery, Jr., 
 J. E. Peralta, F. Ogliaro, M. Bearpark, J. J. Heyd, E. Brothers, 
 K. N. Kudin, V. N. Staroverov, T. Keith, R. Kobayashi, J. Normand, 
 K. Raghavachari, A. Rendell, J. C. Burant, S. S. Iyengar, J. Tomasi, 
 M. Cossi, N. Rega, J. M. Millam, M. Klene, J. E. Knox, J. B. Cross, 
 V. Bakken, C. Adamo, J. Jaramillo, R. Gomperts, R. E. Stratmann, 
 O. Yazyev, A. J. Austin, R. Cammi, C. Pomelli, J. W. Ochterski, 
 R. L. Martin, K. Morokuma, V. G. Zakrzewski, G. A. Voth, 
 P. Salvador, J. J. Dannenberg, S. Dapprich, A. D. Daniels, 
 O. Farkas, J. B. Foresman, J. V. Ortiz, J. Cioslowski, 
 and D. J. Fox, Gaussian, Inc., Wallingford CT, 2013.
 
 ******************************************
 Gaussian 09:  ES64L-G09RevD.01 24-Apr-2013
                 6-Jul-2020 
 ******************************************
 %nprocshared=20
 Will use up to   20 processors via shared memory.
 -----------------------------------
 # opt b3lyp/3-21g geom=connectivity
 -----------------------------------
 1/14=-1,18=20,19=15,26=3,38=1,57=2/1,3;
 2/9=110,12=2,17=6,18=5,40=1/2;
 3/5=5,11=2,16=1,25=1,30=1,71=1,74=-5/1,2,3;
 4//1;
 5/5=2,38=5/2;
 6/7=2,8=2,9=2,10=2,28=1/1;
 7//1,2,3,16;
 1/14=-1,18=20,19=15,26=3/3(2);
 2/9=110/2;
 99//99;
 2/9=110/2;
 3/5=5,11=2,16=1,25=1,30=1,71=1,74=-5/1,2,3;
 4/5=5,16=3,69=1/1;
 5/5=2,38=5/2;
 7//1,2,3,16;
 1/14=-1,18=20,19=15,26=3/3(-5);
 2/9=110/2;
 6/7=2,8=2,9=2,10=2,19=2,28=1/1;
 99/9=1/99;
 -------------------
 Title Card Required
 -------------------
 Symbolic Z-matrix:
 Charge =  0 Multiplicity = 1
 O                     4.48566   10.443    6.91674 
 O                     4.35636   12.4922   8.44106 
 O                     6.24348   13.3546   9.34411 
 N                     8.4796    10.1351   7.96633 
 N                     8.6863    8.07987   6.88497 
 C                     7.89501   9.11529   7.21383 
 C                     6.53571   9.21153   6.84386 
 C                     9.86149   9.98658   8.45541 
 C                     7.72568   11.1924   8.35107 
 C                     6.39295   11.3353   8.05793 
 C                     5.7109    10.35     7.24933 
 C                     6.02336   8.15667   6.07303 
 C                     8.17794   7.07308   6.15666 
 C                     9.92678   9.05729   9.66036 
 C                     6.83586   7.09132   5.71956 
 C                     5.6804    12.4977   8.66494 
 C                     9.12639   5.94517   5.86227 
 H                     10.4695   9.58516   7.63709 
 H                     10.2287   10.9916   8.69906 
 H                     8.21627   11.9675   8.94297 
 H                     4.97733   8.20951   5.76718 
 H                     10.9588   9.00137   10.031 
 H                     9.2919    9.40976   10.4831 
 H                     9.61145   8.04391   9.37975 
 H                     6.4389    6.2774    5.11109 
 H                     9.53451   5.53832   6.79863 
 H                     9.99053   6.31119   5.28682 
 H                     8.65035   5.12921   5.30549 
 H                     4.15657   11.7245   7.79522 
 

 GradGradGradGradGradGradGradGradGradGradGradGradGradGradGradGradGradGrad
 Berny optimization.
 Initialization pass.
                           ----------------------------
                           !    Initial Parameters    !
                           ! (Angstroms and Degrees)  !
 --------------------------                            --------------------------
 ! Name  Definition              Value          Derivative Info.                !
 --------------------------------------------------------------------------------
 ! R1    R(1,11)                 1.273          estimate D2E/DX2                !
 ! R2    R(2,16)                 1.3428         estimate D2E/DX2                !
 ! R3    R(2,29)                 1.0229         estimate D2E/DX2                !
 ! R4    R(3,16)                 1.2299         estimate D2E/DX2                !
 ! R5    R(4,6)                  1.3957         estimate D2E/DX2                !
 ! R6    R(4,8)                  1.4734         estimate D2E/DX2                !
 ! R7    R(4,9)                  1.3544         estimate D2E/DX2                !
 ! R8    R(5,6)                  1.344          estimate D2E/DX2                !
 ! R9    R(5,13)                 1.3426         estimate D2E/DX2                !
 ! R10   R(6,7)                  1.412          estimate D2E/DX2                !
 ! R11   R(7,11)                 1.4632         estimate D2E/DX2                !
 ! R12   R(7,12)                 1.4034         estimate D2E/DX2                !
 ! R13   R(8,14)                 1.5231         estimate D2E/DX2                !
 ! R14   R(8,18)                 1.0957         estimate D2E/DX2                !
 ! R15   R(8,19)                 1.0974         estimate D2E/DX2                !
 ! R16   R(9,10)                 1.372          estimate D2E/DX2                !
 ! R17   R(9,20)                 1.0917         estimate D2E/DX2                !
 ! R18   R(10,11)                1.4456         estimate D2E/DX2                !
 ! R19   R(10,16)                1.4924         estimate D2E/DX2                !
 ! R20   R(12,15)                1.3857         estimate D2E/DX2                !
 ! R21   R(12,21)                1.0911         estimate D2E/DX2                !
 ! R22   R(13,15)                1.4116         estimate D2E/DX2                !
 ! R23   R(13,17)                1.5028         estimate D2E/DX2                !
 ! R24   R(14,22)                1.098          estimate D2E/DX2                !
 ! R25   R(14,23)                1.0974         estimate D2E/DX2                !
 ! R26   R(14,24)                1.0978         estimate D2E/DX2                !
 ! R27   R(15,25)                1.091          estimate D2E/DX2                !
 ! R28   R(17,26)                1.0995         estimate D2E/DX2                !
 ! R29   R(17,27)                1.1008         estimate D2E/DX2                !
 ! R30   R(17,28)                1.0965         estimate D2E/DX2                !
 ! A1    A(16,2,29)            107.5123         estimate D2E/DX2                !
 ! A2    A(6,4,8)              119.8777         estimate D2E/DX2                !
 ! A3    A(6,4,9)              119.3677         estimate D2E/DX2                !
 ! A4    A(8,4,9)              120.43           estimate D2E/DX2                !
 ! A5    A(6,5,13)             119.1778         estimate D2E/DX2                !
 ! A6    A(4,6,5)              116.6302         estimate D2E/DX2                !
 ! A7    A(4,6,7)              119.6479         estimate D2E/DX2                !
 ! A8    A(5,6,7)              123.7217         estimate D2E/DX2                !
 ! A9    A(6,7,11)             121.5398         estimate D2E/DX2                !
 ! A10   A(6,7,12)             116.3683         estimate D2E/DX2                !
 ! A11   A(11,7,12)            122.0916         estimate D2E/DX2                !
 ! A12   A(4,8,14)             111.3656         estimate D2E/DX2                !
 ! A13   A(4,8,18)             108.0277         estimate D2E/DX2                !
 ! A14   A(4,8,19)             107.1709         estimate D2E/DX2                !
 ! A15   A(14,8,18)            110.0933         estimate D2E/DX2                !
 ! A16   A(14,8,19)            111.6408         estimate D2E/DX2                !
 ! A17   A(18,8,19)            108.4013         estimate D2E/DX2                !
 ! A18   A(4,9,10)             124.1472         estimate D2E/DX2                !
 ! A19   A(4,9,20)             117.2667         estimate D2E/DX2                !
 ! A20   A(10,9,20)            118.5807         estimate D2E/DX2                !
 ! A21   A(9,10,11)            120.4508         estimate D2E/DX2                !
 ! A22   A(9,10,16)            117.2569         estimate D2E/DX2                !
 ! A23   A(11,10,16)           122.2145         estimate D2E/DX2                !
 ! A24   A(1,11,7)             121.8043         estimate D2E/DX2                !
 ! A25   A(1,11,10)            123.3981         estimate D2E/DX2                !
 ! A26   A(7,11,10)            114.7946         estimate D2E/DX2                !
 ! A27   A(7,12,15)            120.2618         estimate D2E/DX2                !
 ! A28   A(7,12,21)            117.8768         estimate D2E/DX2                !
 ! A29   A(15,12,21)           121.8613         estimate D2E/DX2                !
 ! A30   A(5,13,15)            121.2178         estimate D2E/DX2                !
 ! A31   A(5,13,17)            115.4754         estimate D2E/DX2                !
 ! A32   A(15,13,17)           123.3044         estimate D2E/DX2                !
 ! A33   A(8,14,22)            109.7809         estimate D2E/DX2                !
 ! A34   A(8,14,23)            111.8617         estimate D2E/DX2                !
 ! A35   A(8,14,24)            110.4075         estimate D2E/DX2                !
 ! A36   A(22,14,23)           107.8824         estimate D2E/DX2                !
 ! A37   A(22,14,24)           108.0147         estimate D2E/DX2                !
 ! A38   A(23,14,24)           108.7818         estimate D2E/DX2                !
 ! A39   A(12,15,13)           119.2378         estimate D2E/DX2                !
 ! A40   A(12,15,25)           120.1654         estimate D2E/DX2                !
 ! A41   A(13,15,25)           120.5968         estimate D2E/DX2                !
 ! A42   A(2,16,3)             123.1164         estimate D2E/DX2                !
 ! A43   A(2,16,10)            113.5629         estimate D2E/DX2                !
 ! A44   A(3,16,10)            123.2761         estimate D2E/DX2                !
 ! A45   A(13,17,26)           110.1919         estimate D2E/DX2                !
 ! A46   A(13,17,27)           110.3817         estimate D2E/DX2                !
 ! A47   A(13,17,28)           112.5799         estimate D2E/DX2                !
 ! A48   A(26,17,27)           106.0715         estimate D2E/DX2                !
 ! A49   A(26,17,28)           108.5553         estimate D2E/DX2                !
 ! A50   A(27,17,28)           108.8306         estimate D2E/DX2                !
 ! D1    D(29,2,16,3)          175.7674         estimate D2E/DX2                !
 ! D2    D(29,2,16,10)          -6.5919         estimate D2E/DX2                !
 ! D3    D(8,4,6,5)             -5.2076         estimate D2E/DX2                !
 ! D4    D(8,4,6,7)            174.6553         estimate D2E/DX2                !
 ! D5    D(9,4,6,5)           -178.6944         estimate D2E/DX2                !
 ! D6    D(9,4,6,7)              1.1685         estimate D2E/DX2                !
 ! D7    D(6,4,8,14)           -76.9157         estimate D2E/DX2                !
 ! D8    D(6,4,8,18)            44.0996         estimate D2E/DX2                !
 ! D9    D(6,4,8,19)           160.7162         estimate D2E/DX2                !
 ! D10   D(9,4,8,14)            96.501          estimate D2E/DX2                !
 ! D11   D(9,4,8,18)          -142.4837         estimate D2E/DX2                !
 ! D12   D(9,4,8,19)           -25.8671         estimate D2E/DX2                !
 ! D13   D(6,4,9,10)             0.5407         estimate D2E/DX2                !
 ! D14   D(6,4,9,20)           179.6763         estimate D2E/DX2                !
 ! D15   D(8,4,9,10)          -172.9094         estimate D2E/DX2                !
 ! D16   D(8,4,9,20)             6.2262         estimate D2E/DX2                !
 ! D17   D(13,5,6,4)          -179.7108         estimate D2E/DX2                !
 ! D18   D(13,5,6,7)             0.4326         estimate D2E/DX2                !
 ! D19   D(6,5,13,15)            0.7272         estimate D2E/DX2                !
 ! D20   D(6,5,13,17)         -178.7162         estimate D2E/DX2                !
 ! D21   D(4,6,7,11)            -1.007          estimate D2E/DX2                !
 ! D22   D(4,6,7,12)           179.1843         estimate D2E/DX2                !
 ! D23   D(5,6,7,11)           178.8456         estimate D2E/DX2                !
 ! D24   D(5,6,7,12)            -0.9631         estimate D2E/DX2                !
 ! D25   D(6,7,11,1)           179.8784         estimate D2E/DX2                !
 ! D26   D(6,7,11,10)           -0.732          estimate D2E/DX2                !
 ! D27   D(12,7,11,1)           -0.324          estimate D2E/DX2                !
 ! D28   D(12,7,11,10)         179.0656         estimate D2E/DX2                !
 ! D29   D(6,7,12,15)            0.3423         estimate D2E/DX2                !
 ! D30   D(6,7,12,21)         -179.56           estimate D2E/DX2                !
 ! D31   D(11,7,12,15)        -179.4652         estimate D2E/DX2                !
 ! D32   D(11,7,12,21)           0.6325         estimate D2E/DX2                !
 ! D33   D(4,8,14,22)         -177.4336         estimate D2E/DX2                !
 ! D34   D(4,8,14,23)          -57.7042         estimate D2E/DX2                !
 ! D35   D(4,8,14,24)           63.5889         estimate D2E/DX2                !
 ! D36   D(18,8,14,22)          62.7673         estimate D2E/DX2                !
 ! D37   D(18,8,14,23)        -177.5034         estimate D2E/DX2                !
 ! D38   D(18,8,14,24)         -56.2103         estimate D2E/DX2                !
 ! D39   D(19,8,14,22)         -57.6807         estimate D2E/DX2                !
 ! D40   D(19,8,14,23)          62.0486         estimate D2E/DX2                !
 ! D41   D(19,8,14,24)        -176.6582         estimate D2E/DX2                !
 ! D42   D(4,9,10,11)           -2.4048         estimate D2E/DX2                !
 ! D43   D(4,9,10,16)          174.4582         estimate D2E/DX2                !
 ! D44   D(20,9,10,11)         178.4702         estimate D2E/DX2                !
 ! D45   D(20,9,10,16)          -4.6668         estimate D2E/DX2                !
 ! D46   D(9,10,11,1)         -178.2556         estimate D2E/DX2                !
 ! D47   D(9,10,11,7)            2.3658         estimate D2E/DX2                !
 ! D48   D(16,10,11,1)           5.0406         estimate D2E/DX2                !
 ! D49   D(16,10,11,7)        -174.338          estimate D2E/DX2                !
 ! D50   D(9,10,16,2)         -173.6561         estimate D2E/DX2                !
 ! D51   D(9,10,16,3)            3.9803         estimate D2E/DX2                !
 ! D52   D(11,10,16,2)           3.1475         estimate D2E/DX2                !
 ! D53   D(11,10,16,3)        -179.2161         estimate D2E/DX2                !
 ! D54   D(7,12,15,13)           0.7263         estimate D2E/DX2                !
 ! D55   D(7,12,15,25)        -179.3312         estimate D2E/DX2                !
 ! D56   D(21,12,15,13)       -179.3753         estimate D2E/DX2                !
 ! D57   D(21,12,15,25)          0.5671         estimate D2E/DX2                !
 ! D58   D(5,13,15,12)          -1.305          estimate D2E/DX2                !
 ! D59   D(5,13,15,25)         178.7528         estimate D2E/DX2                !
 ! D60   D(17,13,15,12)        178.0938         estimate D2E/DX2                !
 ! D61   D(17,13,15,25)         -1.8485         estimate D2E/DX2                !
 ! D62   D(5,13,17,26)          56.0229         estimate D2E/DX2                !
 ! D63   D(5,13,17,27)         -60.8044         estimate D2E/DX2                !
 ! D64   D(5,13,17,28)         177.3646         estimate D2E/DX2                !
 ! D65   D(15,13,17,26)       -123.4076         estimate D2E/DX2                !
 ! D66   D(15,13,17,27)        119.7651         estimate D2E/DX2                !
 ! D67   D(15,13,17,28)         -2.0659         estimate D2E/DX2                !
 --------------------------------------------------------------------------------
 Trust Radius=3.00D-01 FncErr=1.00D-07 GrdErr=1.00D-06
 Number of steps in this run=    157 maximum allowed number of steps=    174.
 GradGradGradGradGradGradGradGradGradGradGradGradGradGradGradGradGradGrad

                          Input orientation:                          
 ---------------------------------------------------------------------
 Center     Atomic      Atomic             Coordinates (Angstroms)
 Number     Number       Type             X           Y           Z
 ---------------------------------------------------------------------
      1          8           0        4.485660   10.443000    6.916740
      2          8           0        4.356360   12.492200    8.441060
      3          8           0        6.243480   13.354600    9.344110
      4          7           0        8.479600   10.135100    7.966330
      5          7           0        8.686300    8.079870    6.884970
      6          6           0        7.895010    9.115290    7.213830
      7          6           0        6.535710    9.211530    6.843860
      8          6           0        9.861490    9.986580    8.455410
      9          6           0        7.725680   11.192400    8.351070
     10          6           0        6.392950   11.335300    8.057930
     11          6           0        5.710900   10.350000    7.249330
     12          6           0        6.023360    8.156670    6.073030
     13          6           0        8.177940    7.073080    6.156660
     14          6           0        9.926780    9.057290    9.660360
     15          6           0        6.835860    7.091320    5.719560
     16          6           0        5.680400   12.497700    8.664940
     17          6           0        9.126390    5.945170    5.862270
     18          1           0       10.469500    9.585160    7.637090
     19          1           0       10.228700   10.991600    8.699060
     20          1           0        8.216270   11.967500    8.942970
     21          1           0        4.977330    8.209510    5.767180
     22          1           0       10.958800    9.001370   10.031000
     23          1           0        9.291900    9.409760   10.483100
     24          1           0        9.611450    8.043910    9.379750
     25          1           0        6.438900    6.277400    5.111090
     26          1           0        9.534510    5.538320    6.798630
     27          1           0        9.990530    6.311190    5.286820
     28          1           0        8.650350    5.129210    5.305490
     29          1           0        4.156570   11.724500    7.795220
 ---------------------------------------------------------------------
                    Distance matrix (angstroms):
                    1          2          3          4          5
     1  O    0.000000
     2  O    2.557243   0.000000
     3  O    4.178453   2.262842   0.000000
     4  N    4.141014   4.773091   4.154960   0.000000
     5  N    4.819831   6.374830   6.311697   2.331531   0.000000
     6  C    3.670796   5.042981   5.023683   1.395713   1.344018
     7  C    2.392600   4.250107   4.847853   2.427268   2.430511
     8  C    5.610292   6.048537   5.022285   1.473390   2.735488
     9  C    3.621689   3.612464   2.803240   1.354365   3.572126
    10  C    2.395051   2.373374   2.398786   2.408937   4.151279
    11  C    1.272980   2.800718   3.701265   2.868095   3.760220
    12  C    2.881609   5.213758   6.145477   3.678571   2.785030
    13  C    5.056383   7.013545   7.304756   3.569576   1.342569
    14  C    6.249274   6.656942   5.668649   2.475024   3.193263
    15  C    4.265025   6.536359   7.260644   4.124858   2.399904
    16  C    2.950491   1.342846   1.229882   3.729002   5.632135
    17  C    6.548187   8.500997   8.679518   4.732961   2.407600
    18  H    6.087786   6.816724   5.914545   2.090582   2.451813
    19  H    6.038223   6.066526   4.677803   2.080826   3.761395
    20  H    4.510783   3.927611   2.444762   2.093050   4.423795
    21  H    2.559630   5.086912   6.392927   4.561804   3.875915
    22  H    7.326558   7.635838   6.454198   3.419742   3.988850
    23  H    6.073422   6.166921   5.113895   2.742277   3.883542
    24  H    6.172177   6.948697   6.288714   2.766210   2.661038
    25  H    4.942443   7.351831   8.248843   5.215237   3.383246
    26  H    7.039938   8.824243   8.854636   4.858677   2.680745
    27  H    7.073336   8.938567   8.950509   4.907644   2.717228
    28  H    6.940975   9.082058   9.474203   5.671698   3.347005
    29  H    1.588165   1.022931   3.067813   4.609128   5.884755
                    6          7          8          9         10
     6  C    0.000000
     7  C    1.412033   0.000000
     8  C    2.483488   3.776057   0.000000
     9  C    2.374105   2.758905   2.454908   0.000000
    10  C    2.810184   2.450458   3.742700   1.372050   0.000000
    11  C    2.509204   1.463158   4.337522   2.445978   1.445629
    12  C    2.392373   1.403357   4.873966   4.159689   3.765649
    13  C    2.316955   2.782469   4.075178   4.689219   4.996753
    14  C    3.180717   4.410875   1.523072   3.334333   4.499452
    15  C    2.729670   2.418560   5.002184   4.953330   4.865749
    16  C    4.295453   3.853155   4.881715   2.446527   1.492435
    17  C    3.659600   4.283019   4.857751   5.974072   6.430095
    18  H    2.651024   4.030325   1.095656   3.259070   4.456272
    19  H    3.342537   4.499843   1.097394   2.535060   3.904120
    20  H    3.350856   3.850444   2.620784   1.091698   2.123080
    21  H    3.380250   2.142856   5.851459   4.809111   4.125782
    22  H    4.163680   5.455800   2.158057   4.251569   5.494290
    23  H    3.567372   4.569458   2.183731   3.190047   4.241823
    24  H    2.963989   4.153824   2.165847   3.811470   4.789488
    25  H    3.820392   3.408956   6.054471   6.025819   5.853916
    26  H    3.956648   4.742080   4.758030   6.136005   6.712690
    27  H    3.995941   4.772015   4.854390   6.192365   6.772246
    28  H    4.483429   4.848053   5.914634   6.847835   7.154532
    29  H    4.595860   3.588929   6.000194   3.651116   2.285145
                   11         12         13         14         15
    11  C    0.000000
    12  C    2.508388   0.000000
    13  C    4.244811   2.413167   0.000000
    14  C    5.025715   5.377429   4.389925   0.000000
    15  C    3.771568   1.385665   1.411583   5.380402   0.000000
    16  C    2.572450   5.067560   6.477320   5.555090   6.264128
    17  C    5.743869   3.816274   1.502799   4.975078   2.565259
    18  H    4.835247   4.924939   3.708567   2.160281   4.806194
    19  H    4.787889   5.711195   5.101393   2.181011   5.966655
    20  H    3.429519   5.250508   5.632081   3.451060   6.006083
    21  H    2.704920   1.091107   3.418636   6.353947   2.169505
    22  H    6.090726   6.382602   5.144122   1.097983   6.263820
    23  H    4.915779   5.630480   5.041732   1.097364   5.839401
    24  H    5.007098   4.880728   3.658657   1.097777   4.691302
    25  H    4.657051   2.151664   2.179583   6.370946   1.090999
    26  H    6.162417   4.439643   2.146601   4.552639   3.295286
    27  H    6.203117   4.445488   2.150019   5.164589   3.278385
    28  H    6.298851   4.081141   2.174004   6.001998   2.704386
    29  H    2.145504   4.379527   6.363333   6.624808   5.740498
                   16         17         18         19         20
    16  C    0.000000
    17  C    7.916152   0.000000
    18  H    5.698670   4.266551   0.000000
    19  H    4.791298   5.893125   1.778718   0.000000
    20  H    2.605580   6.825503   3.529577   2.249833   0.000000
    21  H    5.223016   4.727682   5.962626   6.626676   5.890574
    22  H    6.477032   5.484195   2.512176   2.503623   4.183683
    23  H    5.087633   5.777789   3.085009   2.561759   3.173486
    24  H    5.983340   4.124640   2.479630   3.087590   4.187107
    25  H    7.203978   2.810205   5.793763   7.032766   7.086578
    26  H    8.171306   1.099481   4.237232   5.816511   6.904369
    27  H    8.262071   1.100841   4.058579   5.797098   6.964860
    28  H    8.625610   1.096544   5.348005   6.955223   7.757699
    29  H    1.917370   7.863591   6.667448   6.182623   4.225819
                   21         22         23         24         25
    21  H    0.000000
    22  H    7.388179   0.000000
    23  H    6.503539   1.774749   0.000000
    24  H    5.878193   1.776572   1.784668   0.000000
    25  H    2.509918   7.214917   6.841767   5.604203   0.000000
    26  H    5.382103   4.946669   5.349974   3.598066   3.602337
    27  H    5.382057   5.539121   6.090201   4.460728   3.556135
    28  H    4.815857   6.530927   6.748507   5.100861   2.499328
    29  H    4.140259   7.660580   6.241341   6.768544   6.487255
                   26         27         28         29
    26  H    0.000000
    27  H    1.758082   0.000000
    28  H    1.782856   1.787039   0.000000
    29  H    8.257376   8.344524   8.360064   0.000000
 Stoichiometry    C12H12N2O3
 Framework group  C1[X(C12H12N2O3)]
 Deg. of freedom    81
 Full point group                 C1      NOp   1
 Largest Abelian subgroup         C1      NOp   1
 Largest concise Abelian subgroup C1      NOp   1
                         Standard orientation:                         
 ---------------------------------------------------------------------
 Center     Atomic      Atomic             Coordinates (Angstroms)
 Number     Number       Type             X           Y           Z
 ---------------------------------------------------------------------
      1          8           0       -1.720051   -2.349145    0.146596
      2          8           0       -3.933955   -1.079225    0.306055
      3          8           0       -4.004827    1.137202   -0.144372
      4          7           0        0.140510    1.314935   -0.364120
      5          7           0        2.257281    0.350116   -0.207794
      6          6           0        0.925076    0.172561   -0.198438
      7          6           0        0.302842   -1.083741   -0.030011
      8          6           0        0.778785    2.641634   -0.422014
      9          6           0       -1.208993    1.203557   -0.336896
     10          6           0       -1.880577    0.022870   -0.143312
     11          6           0       -1.153808   -1.218849   -0.002664
     12          6           0        1.156858   -2.188106    0.112974
     13          6           0        3.060643   -0.715154   -0.058459
     14          6           0        1.188176    3.121408    0.964335
     15          6           0        2.531526   -2.015102    0.092325
     16          6           0       -3.365733    0.094445   -0.014659
     17          6           0        4.533735   -0.417908   -0.051482
     18          1           0        1.659419    2.566277   -1.069522
     19          1           0        0.061087    3.326224   -0.891609
     20          1           0       -1.789109    2.119509   -0.464575
     21          1           0        0.701992   -3.172055    0.237299
     22          1           0        1.618320    4.129362    0.896720
     23          1           0        0.332998    3.165331    1.650592
     24          1           0        1.949548    2.455264    1.390573
     25          1           0        3.194003   -2.876107    0.192696
     26          1           0        4.768478    0.319084    0.729926
     27          1           0        4.836624    0.041749   -1.004805
     28          1           0        5.143157   -1.313411    0.119065
     29          1           0       -3.201579   -1.792926    0.280631
 ---------------------------------------------------------------------
 Rotational constants (GHZ):      0.8060425      0.3467304      0.2495578
 Standard basis: 3-21G (6D, 7F)
 There are   177 symmetry adapted cartesian basis functions of A   symmetry.
 There are   177 symmetry adapted basis functions of A   symmetry.
   177 basis functions,   291 primitive gaussians,   177 cartesian basis functions
    61 alpha electrons       61 beta electrons
       nuclear repulsion energy      1187.0451017242 Hartrees.
 NAtoms=   29 NActive=   29 NUniq=   29 SFac= 1.00D+00 NAtFMM=   60 NAOKFM=F Big=F
 Integral buffers will be    131072 words long.
 Raffenetti 2 integral format.
 Two-electron integral symmetry is turned on.
 One-electron integrals computed using PRISM.
 PrsmSu:  requested number of processors reduced to:   9 ShMem   1 Linda.
 NBasis=   177 RedAO= T EigKep=  2.04D-03  NBF=   177
 NBsUse=   177 1.00D-06 EigRej= -1.00D+00 NBFU=   177
 ExpMin= 1.83D-01 ExpMax= 3.22D+02 ExpMxC= 3.22D+02 IAcc=1 IRadAn=         1 AccDes= 0.00D+00
 Harris functional with IExCor=  402 and IRadAn=       1 diagonalized for initial guess.
 HarFok:  IExCor=  402 AccDes= 0.00D+00 IRadAn=         1 IDoV= 1 UseB2=F ITyADJ=14
 ICtDFT=  3500011 ScaDFX=  1.000000  1.000000  1.000000  1.000000
 FoFCou: FMM=F IPFlag=           0 FMFlag=      100000 FMFlg1=           0
         NFxFlg=           0 DoJE=T BraDBF=F KetDBF=T FulRan=T
         wScrn=  0.000000 ICntrl=     500 IOpCl=  0 I1Cent=   200000004 NGrid=           0
         NMat0=    1 NMatS0=      1 NMatT0=    0 NMatD0=    1 NMtDS0=    0 NMtDT0=    0
 Petite list used in FoFCou.
 Requested convergence on RMS density matrix=1.00D-08 within 128 cycles.
 Requested convergence on MAX density matrix=1.00D-06.
 Requested convergence on             energy=1.00D-06.
 No special actions if energy rises.
 Integral accuracy reduced to 1.0D-05 until final iterations.
 Initial convergence to 1.0D-05 achieved.  Increase integral accuracy.
 SCF Done:  E(RB3LYP) =  -795.332445988     A.U. after   17 cycles
            NFock= 17  Conv=0.34D-08     -V/T= 2.0082

 **********************************************************************

            Population analysis using the SCF density.

 **********************************************************************

 Orbital symmetries:
       Occupied  (A) (A) (A) (A) (A) (A) (A) (A) (A) (A) (A) (A)
                 (A) (A) (A) (A) (A) (A) (A) (A) (A) (A) (A) (A)
                 (A) (A) (A) (A) (A) (A) (A) (A) (A) (A) (A) (A)
                 (A) (A) (A) (A) (A) (A) (A) (A) (A) (A) (A) (A)
                 (A) (A) (A) (A) (A) (A) (A) (A) (A) (A) (A) (A)
                 (A)
       Virtual   (A) (A) (A) (A) (A) (A) (A) (A) (A) (A) (A) (A)
                 (A) (A) (A) (A) (A) (A) (A) (A) (A) (A) (A) (A)
                 (A) (A) (A) (A) (A) (A) (A) (A) (A) (A) (A) (A)
                 (A) (A) (A) (A) (A) (A) (A) (A) (A) (A) (A) (A)
                 (A) (A) (A) (A) (A) (A) (A) (A) (A) (A) (A) (A)
                 (A) (A) (A) (A) (A) (A) (A) (A) (A) (A) (A) (A)
                 (A) (A) (A) (A) (A) (A) (A) (A) (A) (A) (A) (A)
                 (A) (A) (A) (A) (A) (A) (A) (A) (A) (A) (A) (A)
                 (A) (A) (A) (A) (A) (A) (A) (A) (A) (A) (A) (A)
                 (A) (A) (A) (A) (A) (A) (A) (A)
 The electronic state is 1-A.
 Alpha  occ. eigenvalues --  -19.03919 -19.03561 -18.99649 -14.35533 -14.28265
 Alpha  occ. eigenvalues --  -10.24377 -10.23761 -10.22946 -10.21358 -10.21071
 Alpha  occ. eigenvalues --  -10.19250 -10.17488 -10.17325 -10.16363 -10.15333
 Alpha  occ. eigenvalues --  -10.14462 -10.13608  -1.07657  -1.04689  -1.03979
 Alpha  occ. eigenvalues --   -0.99160  -0.97960  -0.85881  -0.82509  -0.82394
 Alpha  occ. eigenvalues --   -0.77871  -0.74819  -0.70323  -0.67756  -0.66429
 Alpha  occ. eigenvalues --   -0.62491  -0.59470  -0.57527  -0.57125  -0.55274
 Alpha  occ. eigenvalues --   -0.51564  -0.50724  -0.49209  -0.47218  -0.47087
 Alpha  occ. eigenvalues --   -0.46836  -0.45197  -0.43652  -0.43590  -0.42116
 Alpha  occ. eigenvalues --   -0.41306  -0.41233  -0.40808  -0.40146  -0.39342
 Alpha  occ. eigenvalues --   -0.38703  -0.37551  -0.36856  -0.33945  -0.31209
 Alpha  occ. eigenvalues --   -0.28892  -0.28752  -0.26617  -0.26390  -0.24412
 Alpha  occ. eigenvalues --   -0.24142
 Alpha virt. eigenvalues --   -0.07776  -0.05198  -0.01661   0.02696   0.09334
 Alpha virt. eigenvalues --    0.09972   0.10549   0.12346   0.12807   0.13901
 Alpha virt. eigenvalues --    0.15235   0.16053   0.16294   0.16396   0.17390
 Alpha virt. eigenvalues --    0.18239   0.18763   0.19038   0.20373   0.22031
 Alpha virt. eigenvalues --    0.22984   0.23447   0.24754   0.26324   0.26896
 Alpha virt. eigenvalues --    0.29696   0.32677   0.34808   0.36110   0.38892
 Alpha virt. eigenvalues --    0.42123   0.43767   0.48579   0.50977   0.53381
 Alpha virt. eigenvalues --    0.55271   0.61805   0.65218   0.65860   0.66295
 Alpha virt. eigenvalues --    0.67502   0.67880   0.69647   0.70620   0.71768
 Alpha virt. eigenvalues --    0.72848   0.73063   0.73433   0.74294   0.75031
 Alpha virt. eigenvalues --    0.76192   0.77399   0.78603   0.79181   0.79878
 Alpha virt. eigenvalues --    0.80433   0.81858   0.86540   0.87034   0.87997
 Alpha virt. eigenvalues --    0.88487   0.89486   0.90124   0.94944   0.95844
 Alpha virt. eigenvalues --    0.96678   0.97879   1.01449   1.02155   1.03529
 Alpha virt. eigenvalues --    1.04889   1.05764   1.06978   1.08650   1.09236
 Alpha virt. eigenvalues --    1.11154   1.16748   1.18414   1.20802   1.21925
 Alpha virt. eigenvalues --    1.22483   1.31289   1.33135   1.35528   1.37983
 Alpha virt. eigenvalues --    1.40769   1.43182   1.46268   1.46947   1.49545
 Alpha virt. eigenvalues --    1.53073   1.54460   1.55644   1.58419   1.62687
 Alpha virt. eigenvalues --    1.63212   1.63841   1.66370   1.67702   1.69570
 Alpha virt. eigenvalues --    1.71345   1.77594   1.81000   1.82790   1.88779
 Alpha virt. eigenvalues --    1.96000   1.97132   2.08437   2.13351   2.17009
 Alpha virt. eigenvalues --    2.26812   2.87735   3.10770   3.16081   3.51725
 Alpha virt. eigenvalues --    3.58051
          Condensed to atoms (all electrons):
               1          2          3          4          5          6
     1  O    8.150331  -0.020815  -0.000003  -0.000019  -0.000001   0.002702
     2  O   -0.020815   8.332068  -0.053333  -0.000001   0.000000  -0.000005
     3  O   -0.000003  -0.053333   8.100495   0.000063   0.000000   0.000001
     4  N   -0.000019  -0.000001   0.000063   7.439163  -0.060512   0.198110
     5  N   -0.000001   0.000000   0.000000  -0.060512   7.105396   0.405797
     6  C    0.002702  -0.000005   0.000001   0.198110   0.405797   4.851238
     7  C   -0.101465   0.000015  -0.000020  -0.058603  -0.046990   0.223347
     8  C    0.000000   0.000000   0.000002   0.221648  -0.002025  -0.050887
     9  C    0.003369   0.004292   0.004414   0.247532   0.001512  -0.076744
    10  C   -0.109217  -0.091728  -0.118206  -0.019839  -0.000399  -0.024741
    11  C    0.523691  -0.012898   0.001889  -0.030933   0.004079   0.005389
    12  C    0.002170   0.000002   0.000000   0.004089  -0.038409  -0.106527
    13  C   -0.000005   0.000000   0.000000   0.002713   0.397048  -0.085118
    14  C    0.000000   0.000000   0.000000  -0.055514  -0.006154  -0.003491
    15  C    0.000278   0.000000   0.000000  -0.000340  -0.055548  -0.027874
    16  C   -0.006561   0.237095   0.555071   0.003636  -0.000001  -0.000587
    17  C    0.000000   0.000000   0.000000  -0.000020  -0.076686   0.004109
    18  H    0.000000   0.000000   0.000000  -0.034397   0.013225  -0.000591
    19  H    0.000000   0.000000  -0.000001  -0.032714   0.000372   0.003791
    20  H   -0.000003   0.000196   0.018886  -0.032193  -0.000035   0.002462
    21  H    0.009759   0.000001   0.000000  -0.000021  -0.000038   0.003148
    22  H    0.000000   0.000000   0.000000   0.002708   0.000029   0.000061
    23  H    0.000000   0.000000   0.000000  -0.001028   0.000029   0.000191
    24  H    0.000000   0.000000   0.000000  -0.004037   0.010486   0.003434
    25  H    0.000001   0.000000   0.000000   0.000002   0.002603   0.000327
    26  H    0.000000   0.000000   0.000000  -0.000003   0.000351   0.000010
    27  H    0.000000   0.000000   0.000000  -0.000002   0.000252  -0.000022
    28  H    0.000000   0.000000   0.000000   0.000000   0.002665  -0.000152
    29  H    0.095661   0.202495   0.001049  -0.000006   0.000000  -0.000073
               7          8          9         10         11         12
     1  O   -0.101465   0.000000   0.003369  -0.109217   0.523691   0.002170
     2  O    0.000015   0.000000   0.004292  -0.091728  -0.012898   0.000002
     3  O   -0.000020   0.000002   0.004414  -0.118206   0.001889   0.000000
     4  N   -0.058603   0.221648   0.247532  -0.019839  -0.030933   0.004089
     5  N   -0.046990  -0.002025   0.001512  -0.000399   0.004079  -0.038409
     6  C    0.223347  -0.050887  -0.076744  -0.024741   0.005389  -0.106527
     7  C    5.877864   0.003033  -0.000157  -0.125409   0.068521   0.358051
     8  C    0.003033   5.210970  -0.057250   0.002496  -0.000187  -0.000072
     9  C   -0.000157  -0.057250   5.099482   0.293149  -0.052779  -0.000819
    10  C   -0.125409   0.002496   0.293149   6.569548  -0.023604   0.013586
    11  C    0.068521  -0.000187  -0.052779  -0.023604   5.250862  -0.072425
    12  C    0.358051  -0.000072  -0.000819   0.013586  -0.072425   5.298464
    13  C   -0.023012   0.000107  -0.000073  -0.000010  -0.000190  -0.086210
    14  C   -0.000429   0.268642   0.000395  -0.000092   0.000015   0.000008
    15  C   -0.069893   0.000011  -0.000007  -0.000076   0.007435   0.394220
    16  C    0.004585   0.000006  -0.048690  -0.050617  -0.053329   0.000020
    17  C   -0.000343  -0.000015   0.000001   0.000000   0.000003   0.003929
    18  H    0.000600   0.365781   0.002086  -0.000124  -0.000009  -0.000006
    19  H   -0.000007   0.367762  -0.001719   0.000434  -0.000019   0.000001
    20  H   -0.000269  -0.001481   0.360128  -0.054877   0.003222   0.000002
    21  H   -0.051457   0.000001  -0.000037   0.000893  -0.000260   0.382399
    22  H    0.000001  -0.036761  -0.000019   0.000000   0.000000   0.000000
    23  H    0.000015  -0.040934   0.002187  -0.000084  -0.000002   0.000000
    24  H    0.000238  -0.039521  -0.000156   0.000026  -0.000011  -0.000006
    25  H    0.004276   0.000000   0.000000   0.000000  -0.000024  -0.038597
    26  H    0.000023  -0.000003   0.000000   0.000000   0.000000  -0.000107
    27  H    0.000019  -0.000002   0.000000   0.000000   0.000000  -0.000100
    28  H    0.000019   0.000000   0.000000   0.000000   0.000000   0.000104
    29  H    0.004132   0.000000  -0.000070  -0.007334  -0.005461  -0.000045
              13         14         15         16         17         18
     1  O   -0.000005   0.000000   0.000278  -0.006561   0.000000   0.000000
     2  O    0.000000   0.000000   0.000000   0.237095   0.000000   0.000000
     3  O    0.000000   0.000000   0.000000   0.555071   0.000000   0.000000
     4  N    0.002713  -0.055514  -0.000340   0.003636  -0.000020  -0.034397
     5  N    0.397048  -0.006154  -0.055548  -0.000001  -0.076686   0.013225
     6  C   -0.085118  -0.003491  -0.027874  -0.000587   0.004109  -0.000591
     7  C   -0.023012  -0.000429  -0.069893   0.004585  -0.000343   0.000600
     8  C    0.000107   0.268642   0.000011   0.000006  -0.000015   0.365781
     9  C   -0.000073   0.000395  -0.000007  -0.048690   0.000001   0.002086
    10  C   -0.000010  -0.000092  -0.000076  -0.050617   0.000000  -0.000124
    11  C   -0.000190   0.000015   0.007435  -0.053329   0.000003  -0.000009
    12  C   -0.086210   0.000008   0.394220   0.000020   0.003929  -0.000006
    13  C    5.004169  -0.000019   0.345243   0.000000   0.296605  -0.000141
    14  C   -0.000019   5.365809  -0.000016   0.000001   0.000019  -0.046776
    15  C    0.345243  -0.000016   5.354801   0.000000  -0.082065   0.000030
    16  C    0.000000   0.000001   0.000000   4.684227   0.000000   0.000000
    17  C    0.296605   0.000019  -0.082065   0.000000   5.364219  -0.000051
    18  H   -0.000141  -0.046776   0.000030   0.000000  -0.000051   0.475481
    19  H    0.000000  -0.044022   0.000000  -0.000004   0.000000  -0.023421
    20  H    0.000001   0.000026   0.000000   0.003834   0.000000   0.000071
    21  H    0.003088   0.000000  -0.029145   0.000004  -0.000042   0.000000
    22  H    0.000000   0.354746   0.000000   0.000000   0.000000   0.000318
    23  H    0.000000   0.365314   0.000000   0.000000   0.000000   0.003149
    24  H    0.000184   0.359104   0.000045   0.000000  -0.000109  -0.002773
    25  H   -0.027814   0.000000   0.377738   0.000000  -0.001385   0.000000
    26  H   -0.040564  -0.000001   0.002546   0.000000   0.358289   0.000009
    27  H   -0.040716  -0.000002   0.002278   0.000000   0.358407   0.000031
    28  H   -0.039870   0.000000   0.001831   0.000000   0.357734   0.000000
    29  H    0.000000   0.000000  -0.000001  -0.037542   0.000000   0.000000
              19         20         21         22         23         24
     1  O    0.000000  -0.000003   0.009759   0.000000   0.000000   0.000000
     2  O    0.000000   0.000196   0.000001   0.000000   0.000000   0.000000
     3  O   -0.000001   0.018886   0.000000   0.000000   0.000000   0.000000
     4  N   -0.032714  -0.032193  -0.000021   0.002708  -0.001028  -0.004037
     5  N    0.000372  -0.000035  -0.000038   0.000029   0.000029   0.010486
     6  C    0.003791   0.002462   0.003148   0.000061   0.000191   0.003434
     7  C   -0.000007  -0.000269  -0.051457   0.000001   0.000015   0.000238
     8  C    0.367762  -0.001481   0.000001  -0.036761  -0.040934  -0.039521
     9  C   -0.001719   0.360128  -0.000037  -0.000019   0.002187  -0.000156
    10  C    0.000434  -0.054877   0.000893   0.000000  -0.000084   0.000026
    11  C   -0.000019   0.003222  -0.000260   0.000000  -0.000002  -0.000011
    12  C    0.000001   0.000002   0.382399   0.000000   0.000000  -0.000006
    13  C    0.000000   0.000001   0.003088   0.000000   0.000000   0.000184
    14  C   -0.044022   0.000026   0.000000   0.354746   0.365314   0.359104
    15  C    0.000000   0.000000  -0.029145   0.000000   0.000000   0.000045
    16  C   -0.000004   0.003834   0.000004   0.000000   0.000000   0.000000
    17  C    0.000000   0.000000  -0.000042   0.000000   0.000000  -0.000109
    18  H   -0.023421   0.000071   0.000000   0.000318   0.003149  -0.002773
    19  H    0.509455   0.002663   0.000000  -0.000875  -0.002138   0.003260
    20  H    0.002663   0.428236   0.000000  -0.000013   0.000219  -0.000002
    21  H    0.000000   0.000000   0.447731   0.000000   0.000000   0.000000
    22  H   -0.000875  -0.000013   0.000000   0.526519  -0.024287  -0.023204
    23  H   -0.002138   0.000219   0.000000  -0.024287   0.517651  -0.025109
    24  H    0.003260  -0.000002   0.000000  -0.023204  -0.025109   0.498647
    25  H    0.000000   0.000000  -0.002991   0.000000   0.000000   0.000000
    26  H    0.000000   0.000000   0.000001   0.000000   0.000000   0.000168
    27  H    0.000000   0.000000   0.000001   0.000000   0.000000   0.000008
    28  H    0.000000   0.000000   0.000000   0.000000   0.000000   0.000001
    29  H    0.000000  -0.000036  -0.000028   0.000000   0.000000   0.000000
              25         26         27         28         29
     1  O    0.000001   0.000000   0.000000   0.000000   0.095661
     2  O    0.000000   0.000000   0.000000   0.000000   0.202495
     3  O    0.000000   0.000000   0.000000   0.000000   0.001049
     4  N    0.000002  -0.000003  -0.000002   0.000000  -0.000006
     5  N    0.002603   0.000351   0.000252   0.002665   0.000000
     6  C    0.000327   0.000010  -0.000022  -0.000152  -0.000073
     7  C    0.004276   0.000023   0.000019   0.000019   0.004132
     8  C    0.000000  -0.000003  -0.000002   0.000000   0.000000
     9  C    0.000000   0.000000   0.000000   0.000000  -0.000070
    10  C    0.000000   0.000000   0.000000   0.000000  -0.007334
    11  C   -0.000024   0.000000   0.000000   0.000000  -0.005461
    12  C   -0.038597  -0.000107  -0.000100   0.000104  -0.000045
    13  C   -0.027814  -0.040564  -0.040716  -0.039870   0.000000
    14  C    0.000000  -0.000001  -0.000002   0.000000   0.000000
    15  C    0.377738   0.002546   0.002278   0.001831  -0.000001
    16  C    0.000000   0.000000   0.000000   0.000000  -0.037542
    17  C   -0.001385   0.358289   0.358407   0.357734   0.000000
    18  H    0.000000   0.000009   0.000031   0.000000   0.000000
    19  H    0.000000   0.000000   0.000000   0.000000   0.000000
    20  H    0.000000   0.000000   0.000000   0.000000  -0.000036
    21  H   -0.002991   0.000001   0.000001   0.000000  -0.000028
    22  H    0.000000   0.000000   0.000000   0.000000   0.000000
    23  H    0.000000   0.000000   0.000000   0.000000   0.000000
    24  H    0.000000   0.000168   0.000008   0.000001   0.000000
    25  H    0.482627  -0.000027  -0.000009   0.001757   0.000000
    26  H   -0.000027   0.497913  -0.023477  -0.022974   0.000000
    27  H   -0.000009  -0.023477   0.497386  -0.022464   0.000000
    28  H    0.001757  -0.022974  -0.022464   0.521186   0.000000
    29  H    0.000000   0.000000   0.000000   0.000000   0.372664
 Mulliken charges:
               1
     1  O   -0.549874
     2  O   -0.597383
     3  O   -0.510306
     4  N   -0.789480
     5  N   -0.657047
     6  C    0.672694
     7  C   -0.066686
     8  C   -0.211319
     9  C    0.219976
    10  C   -0.253773
    11  C    0.387025
    12  C   -0.113721
    13  C    0.294582
    14  C   -0.557560
    15  C   -0.221492
    16  C    0.708853
    17  C   -0.582601
    18  H    0.247507
    19  H    0.217183
    20  H    0.268964
    21  H    0.236993
    22  H    0.200779
    23  H    0.204828
    24  H    0.219324
    25  H    0.201516
    26  H    0.227848
    27  H    0.228411
    28  H    0.200163
    29  H    0.374595
 Sum of Mulliken charges =   0.00000
 Mulliken charges with hydrogens summed into heavy atoms:
               1
     1  O   -0.549874
     2  O   -0.222787
     3  O   -0.510306
     4  N   -0.789480
     5  N   -0.657047
     6  C    0.672694
     7  C   -0.066686
     8  C    0.253371
     9  C    0.488940
    10  C   -0.253773
    11  C    0.387025
    12  C    0.123272
    13  C    0.294582
    14  C    0.067371
    15  C   -0.019976
    16  C    0.708853
    17  C    0.073821
 Electronic spatial extent (au):  <R**2>=           4245.2256
 Charge=              0.0000 electrons
 Dipole moment (field-independent basis, Debye):
    X=              9.1056    Y=              1.5821    Z=             -0.3187  Tot=              9.2475
 Quadrupole moment (field-independent basis, Debye-Ang):
   XX=           -118.7573   YY=            -90.3498   ZZ=            -98.6950
   XY=             -3.0445   XZ=              1.4848   YZ=             -0.7446
 Traceless Quadrupole moment (field-independent basis, Debye-Ang):
   XX=            -16.1566   YY=             12.2509   ZZ=              3.9057
   XY=             -3.0445   XZ=              1.4848   YZ=             -0.7446
 Octapole moment (field-independent basis, Debye-Ang**2):
  XXX=            171.6592  YYY=             19.9622  ZZZ=              1.1322  XYY=             22.5781
  XXY=            -26.7255  XXZ=             -2.4438  XZZ=            -12.6649  YZZ=              4.4144
  YYZ=             -0.9176  XYZ=             -3.2538
 Hexadecapole moment (field-independent basis, Debye-Ang**3):
 XXXX=          -4035.3035 YYYY=          -1544.1272 ZZZZ=           -182.1882 XXXY=             29.4551
 XXXZ=             13.7041 YYYX=            -14.2400 YYYZ=            -20.6759 ZZZX=             -8.9686
 ZZZY=             -4.6315 XXYY=           -890.2888 XXZZ=           -627.9515 YYZZ=           -307.8632
 XXYZ=              6.6935 YYXZ=              6.5706 ZZXY=             17.3892
 N-N= 1.187045101724D+03 E-N=-4.225911426915D+03  KE= 7.888331167319D+02
 PrsmSu:  requested number of processors reduced to:   9 ShMem   1 Linda.
 Calling FoFJK, ICntrl=      2127 FMM=F ISym2X=0 I1Cent= 0 IOpClX= 0 NMat=1 NMatS=1 NMatT=0.
 ***** Axes restored to original set *****
 -------------------------------------------------------------------
 Center     Atomic                   Forces (Hartrees/Bohr)
 Number     Number              X              Y              Z
 -------------------------------------------------------------------
      1        8           0.000796589   -0.001515874    0.001591581
      2        8          -0.006595085    0.004536953   -0.001672449
      3        8           0.005424388    0.000091844    0.001033013
      4        7          -0.007635019    0.000100911   -0.003348298
      5        7          -0.000555778    0.002310068    0.002078009
      6        6          -0.000027315    0.001110432   -0.000404660
      7        6           0.005120616   -0.000987140   -0.001171292
      8        6           0.014285601    0.002975849   -0.005157832
      9        6          -0.005929394    0.007104711    0.003651195
     10        6           0.009713876   -0.006084958    0.000132522
     11        6           0.001113280   -0.000661549    0.000186018
     12        6          -0.006570136    0.002197798   -0.001636443
     13        6          -0.002636969    0.001768531    0.000247177
     14        6           0.002527960   -0.007765243    0.009940866
     15        6          -0.001679708   -0.004907123   -0.003116793
     16        6           0.005514060    0.002830707    0.003167551
     17        6           0.005106834   -0.007575902   -0.003510441
     18        1          -0.002896519    0.000296797    0.001877440
     19        1          -0.001914539   -0.002339104    0.000499195
     20        1          -0.004391854   -0.003368342   -0.001741569
     21        1           0.005003772    0.000292495    0.001706291
     22        1          -0.000990649    0.000344560   -0.000862831
     23        1           0.000297216    0.000885566   -0.002303388
     24        1           0.000619605    0.003730471   -0.000805782
     25        1           0.003746600    0.003395803    0.004069143
     26        1          -0.002580515    0.001532683   -0.000990807
     27        1          -0.003506664    0.000169106    0.000455039
     28        1          -0.000099676    0.002933686    0.000894666
     29        1          -0.011260576   -0.003403735   -0.004807123
 -------------------------------------------------------------------
 Cartesian Forces:  Max     0.014285601 RMS     0.004058080

 GradGradGradGradGradGradGradGradGradGradGradGradGradGradGradGradGradGrad
 Berny optimization.
 FormGI is forming the generalized inverse of G from B-inverse, IUseBI=4.
 Internal  Forces:  Max     0.019406710 RMS     0.003721081
 Search for a local minimum.
 Step number   1 out of a maximum of  157
 All quantities printed in internal units (Hartrees-Bohrs-Radians)
 Mixed Optimization -- RFO/linear search
 Second derivative matrix not updated -- first step.
 ITU=  0
     Eigenvalues ---    0.00461   0.00721   0.00729   0.00866   0.01366
     Eigenvalues ---    0.01399   0.01451   0.01476   0.01566   0.01694
     Eigenvalues ---    0.01770   0.01913   0.01976   0.02074   0.02114
     Eigenvalues ---    0.02177   0.02218   0.02347   0.02380   0.02448
     Eigenvalues ---    0.04346   0.05385   0.05523   0.05761   0.06986
     Eigenvalues ---    0.07407   0.09329   0.12698   0.15998   0.16000
     Eigenvalues ---    0.16000   0.16000   0.16000   0.16000   0.16000
     Eigenvalues ---    0.16000   0.16000   0.16000   0.21974   0.22519
     Eigenvalues ---    0.23405   0.24512   0.24823   0.24949   0.24964
     Eigenvalues ---    0.24989   0.24994   0.24998   0.24999   0.24999
     Eigenvalues ---    0.25000   0.30073   0.32085   0.33184   0.33589
     Eigenvalues ---    0.33740   0.33906   0.33929   0.33972   0.33975
     Eigenvalues ---    0.34067   0.34167   0.34617   0.34685   0.34697
     Eigenvalues ---    0.35338   0.35540   0.37442   0.39564   0.43159
     Eigenvalues ---    0.43643   0.43874   0.45255   0.46843   0.49138
     Eigenvalues ---    0.52771   0.54402   0.55673   0.56572   0.75292
     Eigenvalues ---    0.91136
 RFO step:  Lambda=-9.36469165D-03 EMin= 4.60754001D-03
 Linear search not attempted -- first point.
 Iteration  1 RMS(Cart)=  0.08967588 RMS(Int)=  0.00487792
 Iteration  2 RMS(Cart)=  0.00788464 RMS(Int)=  0.00026993
 Iteration  3 RMS(Cart)=  0.00010422 RMS(Int)=  0.00025765
 Iteration  4 RMS(Cart)=  0.00000003 RMS(Int)=  0.00025765
 Variable       Old X    -DE/DX   Delta X   Delta X   Delta X     New X
                                 (Linear)    (Quad)   (Total)
    R1        2.40558  -0.00129   0.00000  -0.00170  -0.00170   2.40389
    R2        2.53761   0.01868   0.00000   0.03248   0.03248   2.57009
    R3        1.93306   0.00779   0.00000   0.01738   0.01738   1.95044
    R4        2.32414   0.00312   0.00000   0.00339   0.00339   2.32753
    R5        2.63751   0.00141   0.00000   0.00347   0.00351   2.64102
    R6        2.78430   0.01243   0.00000   0.03428   0.03428   2.81858
    R7        2.55938   0.00519   0.00000   0.00963   0.00969   2.56907
    R8        2.53983   0.00030   0.00000   0.00076   0.00077   2.54060
    R9        2.53709   0.00431   0.00000   0.00778   0.00778   2.54487
   R10        2.66836  -0.00145   0.00000  -0.00302  -0.00304   2.66531
   R11        2.76497  -0.00198   0.00000  -0.00555  -0.00562   2.75935
   R12        2.65196  -0.00197   0.00000  -0.00466  -0.00465   2.64731
   R13        2.87819   0.00654   0.00000   0.02108   0.02108   2.89927
   R14        2.07049  -0.00312   0.00000  -0.00888  -0.00888   2.06161
   R15        2.07377  -0.00267   0.00000  -0.00765  -0.00765   2.06612
   R16        2.59280  -0.00560   0.00000  -0.01108  -0.01105   2.58175
   R17        2.06301  -0.00531   0.00000  -0.01493  -0.01493   2.04808
   R18        2.73184  -0.00317   0.00000  -0.00858  -0.00861   2.72323
   R19        2.82029   0.00553   0.00000   0.01622   0.01622   2.83651
   R20        2.61853  -0.00135   0.00000  -0.00302  -0.00303   2.61550
   R21        2.06189  -0.00526   0.00000  -0.01477  -0.01477   2.04712
   R22        2.66751  -0.00297   0.00000  -0.00658  -0.00659   2.66092
   R23        2.83988   0.00214   0.00000   0.00649   0.00649   2.84637
   R24        2.07489  -0.00124   0.00000  -0.00356  -0.00356   2.07133
   R25        2.07372  -0.00161   0.00000  -0.00462  -0.00462   2.06910
   R26        2.07450  -0.00342   0.00000  -0.00980  -0.00980   2.06470
   R27        2.06169  -0.00617   0.00000  -0.01730  -0.01730   2.04439
   R28        2.07772  -0.00237   0.00000  -0.00682  -0.00682   2.07089
   R29        2.08029  -0.00294   0.00000  -0.00851  -0.00851   2.07178
   R30        2.07217  -0.00259   0.00000  -0.00741  -0.00741   2.06476
    A1        1.87644   0.01941   0.00000   0.11459   0.11459   1.99103
    A2        2.09226   0.00043   0.00000   0.00229   0.00198   2.09424
    A3        2.08336  -0.00254   0.00000  -0.00736  -0.00751   2.07585
    A4        2.10190   0.00220   0.00000   0.00920   0.00890   2.11080
    A5        2.08005  -0.00139   0.00000  -0.00337  -0.00339   2.07665
    A6        2.03558   0.00348   0.00000   0.01254   0.01253   2.04811
    A7        2.08825  -0.00115   0.00000  -0.00355  -0.00353   2.08472
    A8        2.15935  -0.00233   0.00000  -0.00897  -0.00900   2.15036
    A9        2.12127   0.00166   0.00000   0.00649   0.00642   2.12769
   A10        2.03101   0.00361   0.00000   0.01341   0.01343   2.04444
   A11        2.13090  -0.00527   0.00000  -0.01991  -0.01986   2.11104
   A12        1.94370   0.00336   0.00000   0.01317   0.01319   1.95688
   A13        1.88544  -0.00170   0.00000  -0.00812  -0.00817   1.87727
   A14        1.87049  -0.00109   0.00000  -0.00776  -0.00774   1.86275
   A15        1.92149  -0.00022   0.00000   0.00330   0.00332   1.92481
   A16        1.94850  -0.00170   0.00000  -0.01127  -0.01123   1.93727
   A17        1.89196   0.00128   0.00000   0.01048   0.01047   1.90243
   A18        2.16678   0.00144   0.00000   0.00609   0.00602   2.17280
   A19        2.04669   0.00134   0.00000   0.00929   0.00907   2.05576
   A20        2.06962  -0.00276   0.00000  -0.01494  -0.01516   2.05446
   A21        2.10226   0.00040   0.00000   0.00072   0.00032   2.10258
   A22        2.04652  -0.00598   0.00000  -0.02145  -0.02187   2.02465
   A23        2.13305   0.00565   0.00000   0.02332   0.02291   2.15595
   A24        2.12589  -0.00081   0.00000  -0.00227  -0.00222   2.12367
   A25        2.15370   0.00057   0.00000   0.00309   0.00313   2.15684
   A26        2.00354   0.00024   0.00000  -0.00078  -0.00088   2.00266
   A27        2.09896  -0.00104   0.00000  -0.00568  -0.00572   2.09324
   A28        2.05734  -0.00009   0.00000  -0.00076  -0.00074   2.05659
   A29        2.12688   0.00113   0.00000   0.00645   0.00647   2.13335
   A30        2.11565   0.00136   0.00000   0.00621   0.00616   2.12181
   A31        2.01543   0.00512   0.00000   0.01927   0.01929   2.03471
   A32        2.15207  -0.00648   0.00000  -0.02542  -0.02541   2.12666
   A33        1.91604   0.00014   0.00000   0.00242   0.00243   1.91847
   A34        1.95236  -0.00222   0.00000  -0.01377  -0.01384   1.93851
   A35        1.92697  -0.00211   0.00000  -0.01339  -0.01346   1.91351
   A36        1.88290   0.00129   0.00000   0.00932   0.00934   1.89224
   A37        1.88521   0.00117   0.00000   0.00824   0.00825   1.89346
   A38        1.89860   0.00194   0.00000   0.00850   0.00835   1.90695
   A39        2.08109  -0.00020   0.00000  -0.00118  -0.00124   2.07985
   A40        2.09728   0.00207   0.00000   0.01219   0.01221   2.10949
   A41        2.10481  -0.00186   0.00000  -0.01100  -0.01098   2.09383
   A42        2.14879  -0.00220   0.00000  -0.00734  -0.00871   2.14007
   A43        1.98205   0.01514   0.00000   0.05943   0.05809   2.04014
   A44        2.15157  -0.01285   0.00000  -0.04853  -0.04984   2.10173
   A45        1.92321  -0.00176   0.00000  -0.00866  -0.00870   1.91452
   A46        1.92652  -0.00132   0.00000  -0.00730  -0.00735   1.91917
   A47        1.96489  -0.00178   0.00000  -0.01287  -0.01296   1.95193
   A48        1.85130   0.00248   0.00000   0.01941   0.01941   1.87071
   A49        1.89465   0.00168   0.00000   0.00883   0.00876   1.90341
   A50        1.89945   0.00104   0.00000   0.00286   0.00277   1.90222
    D1        3.06772  -0.00116   0.00000  -0.05135  -0.05214   3.01558
    D2       -0.11505   0.00084   0.00000   0.04176   0.04255  -0.07250
    D3       -0.09089   0.00084   0.00000   0.02894   0.02879  -0.06210
    D4        3.04831   0.00095   0.00000   0.03402   0.03392   3.08223
    D5       -3.11880  -0.00027   0.00000  -0.01299  -0.01290  -3.13171
    D6        0.02039  -0.00016   0.00000  -0.00791  -0.00777   0.01263
    D7       -1.34243  -0.00123   0.00000  -0.04697  -0.04704  -1.38948
    D8        0.76968  -0.00053   0.00000  -0.04008  -0.04019   0.72950
    D9        2.80503  -0.00047   0.00000  -0.03601  -0.03607   2.76896
   D10        1.68426  -0.00042   0.00000  -0.00569  -0.00560   1.67866
   D11       -2.48681   0.00028   0.00000   0.00121   0.00126  -2.48555
   D12       -0.45147   0.00034   0.00000   0.00528   0.00538  -0.44609
   D13        0.00944  -0.00067   0.00000  -0.01520  -0.01538  -0.00594
   D14        3.13594   0.00040   0.00000   0.01982   0.01981  -3.12744
   D15       -3.01784  -0.00167   0.00000  -0.05691  -0.05700  -3.07484
   D16        0.10867  -0.00060   0.00000  -0.02189  -0.02182   0.08685
   D17       -3.13654   0.00003   0.00000   0.00176   0.00178  -3.13476
   D18        0.00755  -0.00009   0.00000  -0.00357  -0.00357   0.00398
   D19        0.01269  -0.00044   0.00000  -0.01275  -0.01268   0.00001
   D20       -3.11919  -0.00056   0.00000  -0.01984  -0.01992  -3.13911
   D21       -0.01758   0.00021   0.00000   0.00409   0.00408  -0.01350
   D22        3.12736   0.00025   0.00000   0.00721   0.00719   3.13455
   D23        3.12144   0.00034   0.00000   0.00959   0.00956   3.13100
   D24       -0.01681   0.00038   0.00000   0.01271   0.01267  -0.00414
   D25        3.13947   0.00027   0.00000   0.01587   0.01572  -3.12800
   D26       -0.01278   0.00046   0.00000   0.01993   0.01982   0.00704
   D27       -0.00565   0.00024   0.00000   0.01264   0.01255   0.00689
   D28        3.12528   0.00044   0.00000   0.01669   0.01665  -3.14125
   D29        0.00597  -0.00016   0.00000  -0.00568  -0.00566   0.00032
   D30       -3.13391  -0.00016   0.00000  -0.00633  -0.00631  -3.14023
   D31       -3.13226  -0.00014   0.00000  -0.00260  -0.00263  -3.13489
   D32        0.01104  -0.00013   0.00000  -0.00325  -0.00328   0.00775
   D33       -3.09680   0.00003   0.00000   0.00222   0.00225  -3.09455
   D34       -1.00713   0.00031   0.00000   0.00667   0.00665  -1.00048
   D35        1.10984  -0.00020   0.00000  -0.00117  -0.00111   1.10873
   D36        1.09550   0.00012   0.00000   0.00172   0.00170   1.09719
   D37       -3.09802   0.00041   0.00000   0.00616   0.00610  -3.09192
   D38       -0.98105  -0.00010   0.00000  -0.00168  -0.00166  -0.98271
   D39       -1.00672  -0.00023   0.00000  -0.00631  -0.00632  -1.01304
   D40        1.08295   0.00006   0.00000  -0.00187  -0.00191   1.08104
   D41       -3.08327  -0.00045   0.00000  -0.00971  -0.00967  -3.09294
   D42       -0.04197   0.00139   0.00000   0.04145   0.04156  -0.00042
   D43        3.04487   0.00290   0.00000   0.09413   0.09349   3.13836
   D44        3.11489   0.00027   0.00000   0.00580   0.00620   3.12110
   D45       -0.08145   0.00178   0.00000   0.05848   0.05814  -0.02331
   D46       -3.11115  -0.00101   0.00000  -0.03740  -0.03721   3.13483
   D47        0.04129  -0.00120   0.00000  -0.04149  -0.04136  -0.00007
   D48        0.08798  -0.00222   0.00000  -0.09128  -0.09171  -0.00373
   D49       -3.04277  -0.00241   0.00000  -0.09537  -0.09586  -3.13863
   D50       -3.03087  -0.00335   0.00000  -0.15865  -0.15821   3.09410
   D51        0.06947  -0.00107   0.00000  -0.06426  -0.06469   0.00478
   D52        0.05493  -0.00200   0.00000  -0.10577  -0.10533  -0.05040
   D53       -3.12791   0.00029   0.00000  -0.01137  -0.01181  -3.13972
   D54        0.01268  -0.00028   0.00000  -0.00929  -0.00932   0.00335
   D55       -3.12992  -0.00010   0.00000  -0.00381  -0.00380  -3.13372
   D56       -3.13069  -0.00029   0.00000  -0.00862  -0.00864  -3.13933
   D57        0.00990  -0.00010   0.00000  -0.00313  -0.00312   0.00678
   D58       -0.02278   0.00061   0.00000   0.01913   0.01913  -0.00365
   D59        3.11982   0.00042   0.00000   0.01362   0.01365   3.13347
   D60        3.10832   0.00081   0.00000   0.02707   0.02702   3.13534
   D61       -0.03226   0.00062   0.00000   0.02155   0.02154  -0.01073
   D62        0.97778   0.00062   0.00000   0.01168   0.01165   0.98944
   D63       -1.06124  -0.00056   0.00000  -0.00248  -0.00245  -1.06368
   D64        3.09560   0.00030   0.00000   0.00804   0.00803   3.10363
   D65       -2.15387   0.00045   0.00000   0.00422   0.00419  -2.14967
   D66        2.09030  -0.00073   0.00000  -0.00995  -0.00991   2.08039
   D67       -0.03606   0.00013   0.00000   0.00058   0.00057  -0.03549
         Item               Value     Threshold  Converged?
 Maximum Force            0.019407     0.000450     NO 
 RMS     Force            0.003721     0.000300     NO 
 Maximum Displacement     0.490567     0.001800     NO 
 RMS     Displacement     0.092133     0.001200     NO 
 Predicted change in Energy=-5.269666D-03
 GradGradGradGradGradGradGradGradGradGradGradGradGradGradGradGradGradGrad

                          Input orientation:                          
 ---------------------------------------------------------------------
 Center     Atomic      Atomic             Coordinates (Angstroms)
 Number     Number       Type             X           Y           Z
 ---------------------------------------------------------------------
      1          8           0        4.461149   10.346368    6.973366
      2          8           0        4.374006   12.688673    8.278265
      3          8           0        6.300617   13.321473    9.307973
      4          7           0        8.458483   10.098343    8.027338
      5          7           0        8.690657    8.058988    6.898561
      6          6           0        7.892455    9.080462    7.254854
      7          6           0        6.534255    9.165077    6.884146
      8          6           0        9.871845    9.984844    8.490138
      9          6           0        7.677468   11.141176    8.415584
     10          6           0        6.355898   11.278399    8.097574
     11          6           0        5.689404   10.281795    7.298042
     12          6           0        6.019085    8.122844    6.102575
     13          6           0        8.181276    7.064124    6.147334
     14          6           0       10.006961    9.071519    9.715470
     15          6           0        6.836824    7.070588    5.728831
     16          6           0        5.674511   12.504778    8.631201
     17          6           0        9.121958    5.945822    5.782289
     18          1           0       10.459758    9.592319    7.659195
     19          1           0       10.210712   10.999027    8.718177
     20          1           0        8.138772   11.926730    9.002709
     21          1           0        4.977376    8.177064    5.810304
     22          1           0       11.049456    9.051895   10.053485
     23          1           0        9.382061    9.426248   10.541614
     24          1           0        9.709700    8.054276    9.449747
     25          1           0        6.456645    6.261569    5.119460
     26          1           0        9.542591    5.504921    6.693115
     27          1           0        9.960569    6.338700    5.195483
     28          1           0        8.620320    5.164411    5.206459
     29          1           0        4.013866   11.984097    7.615571
 ---------------------------------------------------------------------
                    Distance matrix (angstroms):
                    1          2          3          4          5
     1  O    0.000000
     2  O    2.682675   0.000000
     3  O    4.205387   2.274328   0.000000
     4  N    4.141382   4.843111   4.084725   0.000000
     5  N    4.808995   6.478506   6.261893   2.342437   0.000000
     6  C    3.668190   5.142571   4.973472   1.397569   1.344425
     7  C    2.387713   4.361877   4.817173   2.424979   2.423574
     8  C    5.630890   6.130401   4.955362   1.491529   2.763556
     9  C    3.613367   3.650543   2.728694   1.359493   3.581591
    10  C    2.392196   2.439143   2.375347   2.412121   4.153714
    11  C    1.272082   2.912760   3.695004   2.869377   3.756058
    12  C    2.851228   5.318525   6.113885   3.682115   2.788363
    13  C    5.029394   7.118408   7.258164   3.580188   1.346687
    14  C    6.316677   6.846864   5.653773   2.510367   3.269993
    15  C    4.233607   6.642888   7.222973   4.132820   2.404557
    16  C    2.979832   1.360035   1.231674   3.729086   5.644841
    17  C    6.519709   8.616205   8.648158   4.766956   2.428488
    18  H    6.084592   6.856168   5.824390   2.096829   2.461582
    19  H    6.043823   6.092254   4.585897   2.087773   3.776956
    20  H    4.487837   3.908816   2.327511   2.096798   4.437504
    21  H    2.514972   5.177789   6.360000   4.552434   3.871266
    22  H    7.387055   7.806356   6.429351   3.451589   4.062430
    23  H    6.147714   6.391149   5.117612   2.761574   3.952122
    24  H    6.239666   7.163772   6.275772   2.786934   2.747184
    25  H    4.909639   7.458090   8.210374   5.213823   3.374422
    26  H    7.024187   8.990732   8.856995   4.904586   2.700233
    27  H    7.033199   9.001966   8.891959   4.940707   2.733595
    28  H    6.875561   9.169607   9.420250   5.685704   3.353615
    29  H    1.815116   1.032130   3.143570   4.845641   6.147598
                    6          7          8          9         10
     6  C    0.000000
     7  C    1.410423   0.000000
     8  C    2.502362   3.793512   0.000000
     9  C    2.374880   2.749037   2.481522   0.000000
    10  C    2.811070   2.443430   3.766865   1.366202   0.000000
    11  C    2.509682   1.460185   4.359138   2.437178   1.441072
    12  C    2.398811   1.400894   4.900128   4.148563   3.748466
    13  C    2.318542   2.769400   4.108206   4.692668   4.989545
    14  C    3.244356   4.481611   1.534229   3.376348   4.562693
    15  C    2.735451   2.411054   5.032797   4.949243   4.852618
    16  C    4.305758   3.865872   4.897712   2.432640   1.501017
    17  C    3.675064   4.274798   4.920211   6.001041   6.438013
    18  H    2.648874   4.024029   1.090956   3.272953   4.458331
    19  H    3.346120   4.499264   1.093343   2.555209   3.914433
    20  H    3.349165   3.832690   2.652770   1.083795   2.101961
    21  H    3.376469   2.133818   5.865612   4.781625   4.092702
    22  H    4.218981   5.517659   2.168229   4.291633   5.550891
    23  H    3.625091   4.642767   2.181851   3.219724   4.308301
    24  H    3.028695   4.230796   2.161997   3.837761   4.844722
    25  H    3.816755   3.398603   6.073536   6.013768   5.835058
    26  H    3.977813   4.741658   4.838120   6.181663   6.742445
    27  H    4.004418   4.751802   4.914976   6.216541   6.768782
    28  H    4.478969   4.813692   5.965353   6.849027   7.132111
    29  H    4.858464   3.851521   6.251224   3.843503   2.493081
                   11         12         13         14         15
    11  C    0.000000
    12  C    2.489759   0.000000
    13  C    4.229298   2.407896   0.000000
    14  C    5.094117   5.464078   4.482673   0.000000
    15  C    3.753777   1.384060   1.408097   5.472365   0.000000
    16  C    2.592140   5.070900   6.484920   5.633208   6.269381
    17  C    5.734160   3.803923   1.506233   5.101287   2.547507
    18  H    4.833435   4.929706   3.724107   2.168991   4.817788
    19  H    4.793061   5.716952   5.119698   2.179770   5.979292
    20  H    3.407507   5.231959   5.639141   3.485741   5.999621
    21  H    2.673993   1.083291   3.408402   6.430171   2.165289
    22  H    6.151039   6.463548   5.237910   1.096099   6.354090
    23  H    4.988831   5.719575   5.131394   1.094918   5.932136
    24  H    5.074885   4.982861   3.771261   1.092592   4.802735
    25  H    4.636496   2.149958   2.162168   6.451657   1.081842
    26  H    6.166969   4.429148   2.140600   4.697967   3.271442
    27  H    6.181553   4.420552   2.144328   5.282115   3.252368
    28  H    6.257204   4.040021   2.164928   6.125312   2.662187
    29  H    2.409582   4.606445   6.612803   6.986407   5.972558
                   16         17         18         19         20
    16  C    0.000000
    17  C    7.938583   0.000000
    18  H    5.685579   4.313864   0.000000
    19  H    4.780373   5.944720   1.778284   0.000000
    20  H    2.558269   6.863601   3.555486   2.287909   0.000000
    21  H    5.212732   4.707100   5.956329   6.618686   5.851997
    22  H    6.544870   5.621926   2.524366   2.505567   4.223847
    23  H    5.183913   5.901880   3.081777   2.546609   3.188480
    24  H    6.062981   4.270979   2.476739   3.075348   4.202803
    25  H    7.205673   2.764585   5.793882   7.034720   7.071296
    26  H    8.228987   1.095870   4.298991   5.893425   6.967393
    27  H    8.258025   1.096340   4.111582   5.847272   7.002856
    28  H    8.619028   1.092623   5.385705   6.993158   7.769965
    29  H    2.015033   8.118762   6.875466   6.370793   4.352275
                   21         22         23         24         25
    21  H    0.000000
    22  H    7.459227   0.000000
    23  H    6.583844   1.777249   0.000000
    24  H    5.971224   1.776144   1.783768   0.000000
    25  H    2.516868   7.295508   6.926255   5.705046   0.000000
    26  H    5.362918   5.113096   5.496682   3.758478   3.545697
    27  H    5.346943   5.669858   6.200705   4.594007   3.505597
    28  H    4.765684   6.671349   6.870763   5.248196   2.427511
    29  H    4.322134   8.002547   6.627355   7.158926   6.704109
                   26         27         28         29
    26  H    0.000000
    27  H    1.764312   0.000000
    28  H    1.782324   1.781949   0.000000
    29  H    8.567231   8.549305   8.575043   0.000000
 Stoichiometry    C12H12N2O3
 Framework group  C1[X(C12H12N2O3)]
 Deg. of freedom    81
 Full point group                 C1      NOp   1
 Largest Abelian subgroup         C1      NOp   1
 Largest concise Abelian subgroup C1      NOp   1
                         Standard orientation:                         
 ---------------------------------------------------------------------
 Center     Atomic      Atomic             Coordinates (Angstroms)
 Number     Number       Type             X           Y           Z
 ---------------------------------------------------------------------
      1          8           0       -1.683809   -2.356966    0.261861
      2          8           0       -4.044669   -1.094130    0.093538
      3          8           0       -3.944599    1.163082   -0.166357
      4          7           0        0.134680    1.320039   -0.307152
      5          7           0        2.263824    0.347895   -0.213910
      6          6           0        0.930806    0.180311   -0.164314
      7          6           0        0.316536   -1.075995    0.019152
      8          6           0        0.770916    2.663846   -0.425663
      9          6           0       -1.217327    1.189351   -0.250435
     10          6           0       -1.873107    0.004901   -0.067300
     11          6           0       -1.134815   -1.223684    0.081665
     12          6           0        1.160082   -2.186961    0.148343
     13          6           0        3.062071   -0.729368   -0.087928
     14          6           0        1.204990    3.219739    0.936842
     15          6           0        2.533149   -2.021637    0.093787
     16          6           0       -3.371737    0.081206   -0.030736
     17          6           0        4.546167   -0.479234   -0.148172
     18          1           0        1.634063    2.562350   -1.085103
     19          1           0        0.035656    3.319409   -0.900035
     20          1           0       -1.817065    2.083187   -0.376864
     21          1           0        0.700136   -3.157705    0.288437
     22          1           0        1.622896    4.225554    0.813858
     23          1           0        0.356273    3.279662    1.625998
     24          1           0        1.974597    2.575151    1.368081
     25          1           0        3.198344   -2.869964    0.184563
     26          1           0        4.829686    0.247720    0.621299
     27          1           0        4.813359   -0.044576   -1.118555
     28          1           0        5.119442   -1.397502    0.000037
     29          1           0       -3.438687   -1.929560    0.081938
 ---------------------------------------------------------------------
 Rotational constants (GHZ):      0.7908875      0.3451767      0.2467275
 Standard basis: 3-21G (6D, 7F)
 There are   177 symmetry adapted cartesian basis functions of A   symmetry.
 There are   177 symmetry adapted basis functions of A   symmetry.
   177 basis functions,   291 primitive gaussians,   177 cartesian basis functions
    61 alpha electrons       61 beta electrons
       nuclear repulsion energy      1182.2162767082 Hartrees.
 NAtoms=   29 NActive=   29 NUniq=   29 SFac= 1.00D+00 NAtFMM=   60 NAOKFM=F Big=F
 Integral buffers will be    131072 words long.
 Raffenetti 2 integral format.
 Two-electron integral symmetry is turned on.
 One-electron integrals computed using PRISM.
 PrsmSu:  requested number of processors reduced to:   9 ShMem   1 Linda.
 NBasis=   177 RedAO= T EigKep=  2.05D-03  NBF=   177
 NBsUse=   177 1.00D-06 EigRej= -1.00D+00 NBFU=   177
 Initial guess from the checkpoint file:  "/tmp/scratch/63986.prometeo/Gau-1706.chk"
 B after Tr=     0.000000    0.000000    0.000000
         Rot=    0.999996    0.002704   -0.000117    0.000934 Ang=   0.33 deg.
 ExpMin= 1.83D-01 ExpMax= 3.22D+02 ExpMxC= 3.22D+02 IAcc=1 IRadAn=         1 AccDes= 0.00D+00
 Harris functional with IExCor=  402 and IRadAn=       1 diagonalized for initial guess.
 HarFok:  IExCor=  402 AccDes= 0.00D+00 IRadAn=         1 IDoV= 1 UseB2=F ITyADJ=14
 ICtDFT=  3500011 ScaDFX=  1.000000  1.000000  1.000000  1.000000
 FoFCou: FMM=F IPFlag=           0 FMFlag=      100000 FMFlg1=           0
         NFxFlg=           0 DoJE=T BraDBF=F KetDBF=T FulRan=T
         wScrn=  0.000000 ICntrl=     500 IOpCl=  0 I1Cent=   200000004 NGrid=           0
         NMat0=    1 NMatS0=      1 NMatT0=    0 NMatD0=    1 NMtDS0=    0 NMtDT0=    0
 Petite list used in FoFCou.
 Requested convergence on RMS density matrix=1.00D-08 within 128 cycles.
 Requested convergence on MAX density matrix=1.00D-06.
 Requested convergence on             energy=1.00D-06.
 No special actions if energy rises.
 Integral accuracy reduced to 1.0D-05 until final iterations.
 Initial convergence to 1.0D-05 achieved.  Increase integral accuracy.
 SCF Done:  E(RB3LYP) =  -795.332024399     A.U. after   16 cycles
            NFock= 16  Conv=0.50D-08     -V/T= 2.0084
 PrsmSu:  requested number of processors reduced to:   9 ShMem   1 Linda.
[...]
 Rotational constants (GHZ):      0.7896796      0.3469613      0.2473687

 **********************************************************************

            Population analysis using the SCF density.

 **********************************************************************

 Orbital symmetries:
       Occupied  (A) (A) (A) (A) (A) (A) (A) (A) (A) (A) (A) (A)
                 (A) (A) (A) (A) (A) (A) (A) (A) (A) (A) (A) (A)
                 (A) (A) (A) (A) (A) (A) (A) (A) (A) (A) (A) (A)
                 (A) (A) (A) (A) (A) (A) (A) (A) (A) (A) (A) (A)
                 (A) (A) (A) (A) (A) (A) (A) (A) (A) (A) (A) (A)
                 (A)
       Virtual   (A) (A) (A) (A) (A) (A) (A) (A) (A) (A) (A) (A)
                 (A) (A) (A) (A) (A) (A) (A) (A) (A) (A) (A) (A)
                 (A) (A) (A) (A) (A) (A) (A) (A) (A) (A) (A) (A)
                 (A) (A) (A) (A) (A) (A) (A) (A) (A) (A) (A) (A)
                 (A) (A) (A) (A) (A) (A) (A) (A) (A) (A) (A) (A)
                 (A) (A) (A) (A) (A) (A) (A) (A) (A) (A) (A) (A)
                 (A) (A) (A) (A) (A) (A) (A) (A) (A) (A) (A) (A)
                 (A) (A) (A) (A) (A) (A) (A) (A) (A) (A) (A) (A)
                 (A) (A) (A) (A) (A) (A) (A) (A) (A) (A) (A) (A)
                 (A) (A) (A) (A) (A) (A) (A) (A)
 The electronic state is 1-A.
 Alpha  occ. eigenvalues --  -19.03737 -19.03689 -18.99902 -14.35442 -14.28236
 Alpha  occ. eigenvalues --  -10.24284 -10.23968 -10.22694 -10.21140 -10.20903
 Alpha  occ. eigenvalues --  -10.19301 -10.17233 -10.17076 -10.16076 -10.15172
 Alpha  occ. eigenvalues --  -10.14302 -10.13651  -1.07079  -1.04384  -1.03610
 Alpha  occ. eigenvalues --   -0.99002  -0.97654  -0.85728  -0.82403  -0.82253
 Alpha  occ. eigenvalues --   -0.77787  -0.74697  -0.70115  -0.67635  -0.66342
 Alpha  occ. eigenvalues --   -0.62490  -0.59410  -0.57450  -0.56967  -0.55064
 Alpha  occ. eigenvalues --   -0.51438  -0.50381  -0.49011  -0.47197  -0.47062
 Alpha  occ. eigenvalues --   -0.46700  -0.45196  -0.43580  -0.43336  -0.42088
 Alpha  occ. eigenvalues --   -0.41351  -0.41217  -0.40656  -0.40221  -0.39314
 Alpha  occ. eigenvalues --   -0.38604  -0.37858  -0.36733  -0.33795  -0.31105
 Alpha  occ. eigenvalues --   -0.28805  -0.28685  -0.26665  -0.26254  -0.24534
 Alpha  occ. eigenvalues --   -0.24082
 Alpha virt. eigenvalues --   -0.07635  -0.05028  -0.01575   0.02769   0.09634
 Alpha virt. eigenvalues --    0.10097   0.10613   0.12088   0.12993   0.14078
 Alpha virt. eigenvalues --    0.15521   0.16215   0.16410   0.16669   0.17349
 Alpha virt. eigenvalues --    0.18150   0.18572   0.19018   0.20338   0.21439
 Alpha virt. eigenvalues --    0.22407   0.22987   0.24805   0.26426   0.26734
 Alpha virt. eigenvalues --    0.29937   0.32268   0.34867   0.36041   0.38692
 Alpha virt. eigenvalues --    0.42245   0.43475   0.48370   0.51302   0.53711
 Alpha virt. eigenvalues --    0.55139   0.62179   0.65107   0.66071   0.66691
 Alpha virt. eigenvalues --    0.67418   0.67908   0.69836   0.70615   0.71711
 Alpha virt. eigenvalues --    0.72706   0.73077   0.73371   0.74438   0.75089
 Alpha virt. eigenvalues --    0.76273   0.77300   0.78348   0.79101   0.79516
 Alpha virt. eigenvalues --    0.80566   0.81945   0.86519   0.86721   0.87766
 Alpha virt. eigenvalues --    0.88429   0.89579   0.90042   0.95065   0.95888
 Alpha virt. eigenvalues --    0.97246   0.98181   1.02099   1.02758   1.03663
 Alpha virt. eigenvalues --    1.04902   1.06504   1.06731   1.08868   1.09387
 Alpha virt. eigenvalues --    1.11480   1.16791   1.19020   1.20776   1.21671
 Alpha virt. eigenvalues --    1.21793   1.31229   1.32552   1.35662   1.38021
 Alpha virt. eigenvalues --    1.41232   1.43261   1.46339   1.46554   1.49679
 Alpha virt. eigenvalues --    1.53351   1.54733   1.56926   1.58945   1.62624
 Alpha virt. eigenvalues --    1.62878   1.63729   1.66282   1.67191   1.69088
 Alpha virt. eigenvalues --    1.71699   1.77340   1.81302   1.83177   1.88897
 Alpha virt. eigenvalues --    1.95871   1.97195   2.08329   2.14049   2.16164
 Alpha virt. eigenvalues --    2.27144   2.87705   3.11104   3.14210   3.52438
 Alpha virt. eigenvalues --    3.56968
          Condensed to atoms (all electrons):
               1          2          3          4          5          6
     1  O    8.149005  -0.019142  -0.000003  -0.000020  -0.000001   0.002702
     2  O   -0.019142   8.319823  -0.050171  -0.000001   0.000000  -0.000005
     3  O   -0.000003  -0.050171   8.102826   0.000074   0.000000   0.000001
     4  N   -0.000020  -0.000001   0.000074   7.418738  -0.058926   0.200837
     5  N   -0.000001   0.000000   0.000000  -0.058926   7.099763   0.403347
     6  C    0.002702  -0.000005   0.000001   0.200837   0.403347   4.850068
     7  C   -0.103212   0.000008  -0.000023  -0.057879  -0.047335   0.225672
     8  C    0.000000   0.000000   0.000002   0.223883  -0.003391  -0.049533
     9  C    0.003406   0.004028   0.003524   0.247867   0.001501  -0.077325
    10  C   -0.110039  -0.088214  -0.119016  -0.018902  -0.000421  -0.026610
    11  C    0.531241  -0.011943   0.002025  -0.031755   0.004133   0.007971
    12  C    0.002210   0.000002   0.000000   0.004064  -0.038742  -0.104939
    13  C   -0.000006   0.000000   0.000000   0.002567   0.400232  -0.086835
    14  C    0.000000   0.000000   0.000000  -0.050872  -0.004660  -0.002683
    15  C    0.000314   0.000000   0.000000  -0.000332  -0.055044  -0.027226
    16  C   -0.006179   0.241112   0.547058   0.003632  -0.000001  -0.000602
    17  C    0.000000   0.000000   0.000000  -0.000017  -0.071577   0.004043
    18  H    0.000000   0.000000   0.000000  -0.034150   0.014909  -0.000305
    19  H    0.000000   0.000000  -0.000002  -0.032262   0.000374   0.003589
    20  H   -0.000003   0.000209   0.022114  -0.030649  -0.000032   0.002424
    21  H    0.011310   0.000001   0.000000  -0.000020  -0.000051   0.003066
    22  H    0.000000   0.000000   0.000000   0.002498   0.000018   0.000037
    23  H    0.000000   0.000000   0.000000  -0.000966   0.000010   0.000142
    24  H    0.000000   0.000000   0.000000  -0.003581   0.008627   0.003188
    25  H    0.000001   0.000000   0.000000   0.000002   0.002684   0.000336
    26  H    0.000000   0.000000   0.000000  -0.000002   0.000426  -0.000012
    27  H    0.000000   0.000000   0.000000  -0.000002   0.000134  -0.000018
    28  H    0.000000   0.000000   0.000000   0.000000   0.002569  -0.000155
    29  H    0.090698   0.202185   0.001060  -0.000005   0.000000  -0.000058
               7          8          9         10         11         12
     1  O   -0.103212   0.000000   0.003406  -0.110039   0.531241   0.002210
     2  O    0.000008   0.000000   0.004028  -0.088214  -0.011943   0.000002
     3  O   -0.000023   0.000002   0.003524  -0.119016   0.002025   0.000000
     4  N   -0.057879   0.223883   0.247867  -0.018902  -0.031755   0.004064
     5  N   -0.047335  -0.003391   0.001501  -0.000421   0.004133  -0.038742
     6  C    0.225672  -0.049533  -0.077325  -0.026610   0.007971  -0.104939
     7  C    5.894183   0.002781  -0.000551  -0.126879   0.061450   0.357606
     8  C    0.002781   5.212500  -0.052387   0.002295  -0.000167  -0.000066
     9  C   -0.000551  -0.052387   5.101278   0.297247  -0.052340  -0.000882
    10  C   -0.126879   0.002295   0.297247   6.569108  -0.037623   0.014437
    11  C    0.061450  -0.000167  -0.052340  -0.037623   5.258553  -0.075888
    12  C    0.357606  -0.000066  -0.000882   0.014437  -0.075888   5.302543
    13  C   -0.022911   0.000136  -0.000069  -0.000011  -0.000175  -0.087207
    14  C   -0.000339   0.268257   0.000418  -0.000077   0.000010   0.000005
    15  C   -0.072078   0.000005  -0.000005  -0.000099   0.007799   0.391348
    16  C    0.004674   0.000004  -0.050977  -0.041544  -0.054272   0.000017
    17  C   -0.000353  -0.000008   0.000001   0.000000   0.000003   0.004196
    18  H    0.000710   0.364201   0.001954  -0.000113  -0.000011  -0.000007
    19  H   -0.000004   0.366584  -0.001321   0.000390  -0.000017   0.000001
    20  H   -0.000278  -0.001392   0.357894  -0.057407   0.003475   0.000002
    21  H   -0.053629   0.000001  -0.000043   0.001058  -0.000197   0.383065
    22  H    0.000001  -0.036306  -0.000018   0.000000   0.000000   0.000000
    23  H    0.000012  -0.040741   0.001986  -0.000065  -0.000001   0.000000
    24  H    0.000185  -0.039838  -0.000148   0.000019  -0.000008  -0.000004
    25  H    0.004353   0.000000   0.000000   0.000000  -0.000026  -0.037907
    26  H    0.000022  -0.000002   0.000000   0.000000   0.000000  -0.000113
    27  H    0.000021  -0.000002   0.000000   0.000000   0.000000  -0.000112
    28  H    0.000021   0.000000   0.000000   0.000000   0.000000   0.000132
    29  H    0.003585   0.000000  -0.000086  -0.006156  -0.003800  -0.000044
              13         14         15         16         17         18
     1  O   -0.000006   0.000000   0.000314  -0.006179   0.000000   0.000000
     2  O    0.000000   0.000000   0.000000   0.241112   0.000000   0.000000
     3  O    0.000000   0.000000   0.000000   0.547058   0.000000   0.000000
     4  N    0.002567  -0.050872  -0.000332   0.003632  -0.000017  -0.034150
     5  N    0.400232  -0.004660  -0.055044  -0.000001  -0.071577   0.014909
     6  C   -0.086835  -0.002683  -0.027226  -0.000602   0.004043  -0.000305
     7  C   -0.022911  -0.000339  -0.072078   0.004674  -0.000353   0.000710
     8  C    0.000136   0.268257   0.000005   0.000004  -0.000008   0.364201
     9  C   -0.000069   0.000418  -0.000005  -0.050977   0.000001   0.001954
    10  C   -0.000011  -0.000077  -0.000099  -0.041544   0.000000  -0.000113
    11  C   -0.000175   0.000010   0.007799  -0.054272   0.000003  -0.000011
    12  C   -0.087207   0.000005   0.391348   0.000017   0.004196  -0.000007
    13  C    5.014100  -0.000016   0.341155   0.000000   0.295326  -0.000121
    14  C   -0.000016   5.358278  -0.000010   0.000000   0.000013  -0.045293
    15  C    0.341155  -0.000010   5.363077   0.000000  -0.087922   0.000036
    16  C    0.000000   0.000000   0.000000   4.673572   0.000000   0.000000
    17  C    0.295326   0.000013  -0.087922   0.000000   5.365176  -0.000061
    18  H   -0.000121  -0.045293   0.000036   0.000000  -0.000061   0.469490
    19  H    0.000000  -0.044236   0.000000  -0.000004   0.000000  -0.022275
    20  H    0.000001   0.000078   0.000000   0.003275   0.000000   0.000058
    21  H    0.003070   0.000000  -0.028519   0.000005  -0.000045   0.000000
    22  H    0.000000   0.354897   0.000000   0.000000   0.000000   0.000320
    23  H    0.000000   0.365855   0.000000   0.000000   0.000000   0.003068
    24  H    0.000129   0.360016   0.000030   0.000000  -0.000071  -0.002486
    25  H   -0.029011   0.000000   0.378634   0.000000  -0.001770   0.000000
    26  H   -0.040933  -0.000002   0.002771   0.000000   0.358968   0.000010
    27  H   -0.041375  -0.000001   0.002456   0.000000   0.359645   0.000031
    28  H   -0.040840   0.000000   0.001845   0.000000   0.359023   0.000000
    29  H    0.000000   0.000000  -0.000001  -0.033067   0.000000   0.000000
              19         20         21         22         23         24
     1  O    0.000000  -0.000003   0.011310   0.000000   0.000000   0.000000
     2  O    0.000000   0.000209   0.000001   0.000000   0.000000   0.000000
     3  O   -0.000002   0.022114   0.000000   0.000000   0.000000   0.000000
     4  N   -0.032262  -0.030649  -0.000020   0.002498  -0.000966  -0.003581
     5  N    0.000374  -0.000032  -0.000051   0.000018   0.000010   0.008627
     6  C    0.003589   0.002424   0.003066   0.000037   0.000142   0.003188
     7  C   -0.000004  -0.000278  -0.053629   0.000001   0.000012   0.000185
     8  C    0.366584  -0.001392   0.000001  -0.036306  -0.040741  -0.039838
     9  C   -0.001321   0.357894  -0.000043  -0.000018   0.001986  -0.000148
    10  C    0.000390  -0.057407   0.001058   0.000000  -0.000065   0.000019
    11  C   -0.000017   0.003475  -0.000197   0.000000  -0.000001  -0.000008
    12  C    0.000001   0.000002   0.383065   0.000000   0.000000  -0.000004
    13  C    0.000000   0.000001   0.003070   0.000000   0.000000   0.000129
    14  C   -0.044236   0.000078   0.000000   0.354897   0.365855   0.360016
    15  C    0.000000   0.000000  -0.028519   0.000000   0.000000   0.000030
    16  C   -0.000004   0.003275   0.000005   0.000000   0.000000   0.000000
    17  C    0.000000   0.000000  -0.000045   0.000000   0.000000  -0.000071
    18  H   -0.022275   0.000058   0.000000   0.000320   0.003068  -0.002486
    19  H    0.507932   0.002206   0.000000  -0.000658  -0.002102   0.003273
    20  H    0.002206   0.427621   0.000000  -0.000012   0.000244  -0.000002
    21  H    0.000000   0.000000   0.446681   0.000000   0.000000   0.000000
    22  H   -0.000658  -0.000012   0.000000   0.524438  -0.023949  -0.022916
    23  H   -0.002102   0.000244   0.000000  -0.023949   0.515830  -0.024750
    24  H    0.003273  -0.000002   0.000000  -0.022916  -0.024750   0.497860
    25  H    0.000000   0.000000  -0.002844   0.000000   0.000000   0.000000
    26  H    0.000000   0.000000   0.000001   0.000000   0.000000   0.000083
    27  H    0.000000   0.000000   0.000001   0.000000   0.000000   0.000005
    28  H    0.000000   0.000000   0.000000   0.000000   0.000000   0.000001
    29  H    0.000000  -0.000036  -0.000027   0.000000   0.000000   0.000000
              25         26         27         28         29
     1  O    0.000001   0.000000   0.000000   0.000000   0.090698
     2  O    0.000000   0.000000   0.000000   0.000000   0.202185
     3  O    0.000000   0.000000   0.000000   0.000000   0.001060
     4  N    0.000002  -0.000002  -0.000002   0.000000  -0.000005
     5  N    0.002684   0.000426   0.000134   0.002569   0.000000
     6  C    0.000336  -0.000012  -0.000018  -0.000155  -0.000058
     7  C    0.004353   0.000022   0.000021   0.000021   0.003585
     8  C    0.000000  -0.000002  -0.000002   0.000000   0.000000
     9  C    0.000000   0.000000   0.000000   0.000000  -0.000086
    10  C    0.000000   0.000000   0.000000   0.000000  -0.006156
    11  C   -0.000026   0.000000   0.000000   0.000000  -0.003800
    12  C   -0.037907  -0.000113  -0.000112   0.000132  -0.000044
    13  C   -0.029011  -0.040933  -0.041375  -0.040840   0.000000
    14  C    0.000000  -0.000002  -0.000001   0.000000   0.000000
    15  C    0.378634   0.002771   0.002456   0.001845  -0.000001
    16  C    0.000000   0.000000   0.000000   0.000000  -0.033067
    17  C   -0.001770   0.358968   0.359645   0.359023   0.000000
    18  H    0.000000   0.000010   0.000031   0.000000   0.000000
    19  H    0.000000   0.000000   0.000000   0.000000   0.000000
    20  H    0.000000   0.000000   0.000000   0.000000  -0.000036
    21  H   -0.002844   0.000001   0.000001   0.000000  -0.000027
    22  H    0.000000   0.000000   0.000000   0.000000   0.000000
    23  H    0.000000   0.000000   0.000000   0.000000   0.000000
    24  H    0.000000   0.000083   0.000005   0.000001   0.000000
    25  H    0.482389  -0.000015  -0.000008   0.002218   0.000000
    26  H   -0.000015   0.496116  -0.022161  -0.022782   0.000000
    27  H   -0.000008  -0.022161   0.495861  -0.023016   0.000000
    28  H    0.002218  -0.022782  -0.023016   0.520128   0.000000
    29  H    0.000000   0.000000   0.000000   0.000000   0.372508
 Mulliken charges:
               1
     1  O   -0.552284
     2  O   -0.597893
     3  O   -0.509470
     4  N   -0.783822
     5  N   -0.658545
     6  C    0.668883
     7  C   -0.069811
     8  C   -0.216816
     9  C    0.215047
    10  C   -0.251379
    11  C    0.391563
    12  C   -0.113718
    13  C    0.292793
    14  C   -0.559638
    15  C   -0.218234
    16  C    0.713296
    17  C   -0.584570
    18  H    0.250037
    19  H    0.218533
    20  H    0.270210
    21  H    0.237117
    22  H    0.201651
    23  H    0.205426
    24  H    0.220389
    25  H    0.200964
    26  H    0.227627
    27  H    0.228541
    28  H    0.200855
    29  H    0.373244
 Sum of Mulliken charges =   0.00000
 Mulliken charges with hydrogens summed into heavy atoms:
               1
     1  O   -0.552284
     2  O   -0.224649
     3  O   -0.509470
     4  N   -0.783822
     5  N   -0.658545
     6  C    0.668883
     7  C   -0.069811
     8  C    0.251755
     9  C    0.485257
    10  C   -0.251379
    11  C    0.391563
    12  C    0.123399
    13  C    0.292793
    14  C    0.067828
    15  C   -0.017269
    16  C    0.713296
    17  C    0.072454
 Electronic spatial extent (au):  <R**2>=           4276.0082
 Charge=              0.0000 electrons
 Dipole moment (field-independent basis, Debye):
    X=              8.8994    Y=              1.5365    Z=             -0.2054  Tot=              9.0334
 Quadrupole moment (field-independent basis, Debye-Ang):
   XX=           -118.4624   YY=            -89.8934   ZZ=            -98.5826
   XY=             -2.9887   XZ=             -0.0307   YZ=             -0.6473
 Traceless Quadrupole moment (field-independent basis, Debye-Ang):
   XX=            -16.1496   YY=             12.4194   ZZ=              3.7302
   XY=             -2.9887   XZ=             -0.0307   YZ=             -0.6473
 Octapole moment (field-independent basis, Debye-Ang**2):
  XXX=            168.1394  YYY=             20.1690  ZZZ=             -0.2538  XYY=             21.7402
  XXY=            -27.8774  XXZ=              1.6290  XZZ=            -12.8119  YZZ=              4.0351
  YYZ=             -1.4916  XYZ=             -2.8113
 Hexadecapole moment (field-independent basis, Debye-Ang**3):
 XXXX=          -4048.2315 YYYY=          -1581.4602 ZZZZ=           -173.8831 XXXY=             22.3244
 XXXZ=            -15.2124 YYYX=             -7.3227 YYYZ=            -18.5553 ZZZX=             -6.6258
 ZZZY=             -5.0433 XXYY=           -892.9049 XXZZ=           -623.9104 YYZZ=           -314.8877
 XXYZ=              4.5651 YYXZ=              6.0618 ZZXY=             17.4668
 N-N= 1.184079428765D+03 E-N=-4.220066974413D+03  KE= 7.887829219345D+02
 1\1\GINC-NODE046\FOpt\RB3LYP\3-21G\C12H12N2O3\SUPERCOMPUTO1\06-Jul-202
 0\0\\# opt b3lyp/3-21g geom=connectivity\\Title Card Required\\0,1\O,4
 .4727779592,10.3919298747,6.9458647517\O,4.3698265457,12.6166971122,8.
 2385380424\O,6.252597888,13.3594603205,9.2857677416\N,8.4544035418,10.
 0937669714,8.0492152007\N,8.6839532507,8.0595443861,6.9155828462\C,7.8
 875586962,9.0846545865,7.2681567439\C,6.5338435351,9.1787866875,6.8850
 787077\C,9.8794009141,9.9802238688,8.4873752624\C,7.684123881,11.14609
 11475,8.4319755195\C,6.3687345624,11.2917203545,8.0945623285\C,5.69511
 90545,10.3067344153,7.2891732875\C,6.0152564465,8.142856368,6.09671315
 58\C,8.1731309096,7.0731430529,6.156725093\C,10.0148074169,9.079240489
 8,9.7257776278\C,6.8305879807,7.0859827946,5.7286727674\C,5.6732544751
 ,12.5171985129,8.5984511115\C,9.1091256509,5.9486395329,5.7819102129\H
 ,10.437092884,9.5597829902,7.6507905865\H,10.2256308176,10.9959093115,
 8.6927822831\H,8.1413269022,11.9202359421,9.0375140409\H,4.9759635075,
 8.2092662831,5.7989914005\H,11.0619963011,9.0478544792,10.0448196412\H
 ,9.4066913426,9.4599757313,10.5519050364\H,9.6927685808,8.0660819854,9
 .473688907\H,6.4547969097,6.2737047096,5.1210722004\H,9.5224140539,5.4
 91497202,6.6872922405\H,9.9488018617,6.3429162281,5.1987418682\H,8.595
 6878194,5.1836535562,5.1952497486\H,4.1070063112,11.7989811054,7.66647
 16464\\Version=ES64L-G09RevD.01\State=1-A\HF=-795.3358309\RMSD=6.790e-
 09\RMSF=4.154e-06\Dipole=2.2148312,-2.6655649,-0.787553\Quadrupole=1.8
 219324,-5.6305169,3.8085845,8.6003064,4.7740121,-1.4852717\PG=C01 [X(C
 12H12N2O3)]\\@


 IF YOU GIVE EVERYONE A PIECE OF YOUR MIND,
 PRETTY SOON IT WILL BE ALL GONE.
 Job cpu time:       0 days  0 hours 49 minutes 47.1 seconds.
 File lengths (MBytes):  RWF=     22 Int=      0 D2E=      0 Chk=      4 Scr=      1
 Normal termination of Gaussian 09 at Mon Jul  6 19:08:13 2020.
