 Entering Gaussian System, Link 0=g09
 Input=cinoxacino.gjf
 Output=cinoxacino.log
 Initial command:
 /usr/local/cluster_programs/g09/l1.exe "/tmp/scratch/64510.prometeo/Gau-24483.inp" -scrdir="/tmp/scratch/64510.prometeo/"
 Entering Link 1 = /usr/local/cluster_programs/g09/l1.exe PID=     24484.
  
 Copyright (c) 1988,1990,1992,1993,1995,1998,2003,2009,2013,
            Gaussian, Inc.  All Rights Reserved.
  
 This is part of the Gaussian(R) 09 program.  It is based on
 the Gaussian(R) 03 system (copyright 2003, Gaussian, Inc.),
 the Gaussian(R) 98 system (copyright 1998, Gaussian, Inc.),
 the Gaussian(R) 94 system (copyright 1995, Gaussian, Inc.),
 the Gaussian 92(TM) system (copyright 1992, Gaussian, Inc.),
 the Gaussian 90(TM) system (copyright 1990, Gaussian, Inc.),
 the Gaussian 88(TM) system (copyright 1988, Gaussian, Inc.),
 the Gaussian 86(TM) system (copyright 1986, Carnegie Mellon
 University), and the Gaussian 82(TM) system (copyright 1983,
 Carnegie Mellon University). Gaussian is a federally registered
 trademark of Gaussian, Inc.
  
 This software contains proprietary and confidential information,
 including trade secrets, belonging to Gaussian, Inc.
  
 This software is provided under written license and may be
 used, copied, transmitted, or stored only in accord with that
 written license.
  
 The following legend is applicable only to US Government
 contracts under FAR:
  
                    RESTRICTED RIGHTS LEGEND
  
 Use, reproduction and disclosure by the US Government is
 subject to restrictions as set forth in subparagraphs (a)
 and (c) of the Commercial Computer Software - Restricted
 Rights clause in FAR 52.227-19.
  
 Gaussian, Inc.
 340 Quinnipiac St., Bldg. 40, Wallingford CT 06492
  
  
 ---------------------------------------------------------------
 Warning -- This program may not be used in any manner that
 competes with the business of Gaussian, Inc. or will provide
 assistance to any competitor of Gaussian, Inc.  The licensee
 of this program is prohibited from giving any competitor of
 Gaussian, Inc. access to this program.  By using this program,
 the user acknowledges that Gaussian, Inc. is engaged in the
 business of creating and licensing software in the field of
 computational chemistry and represents and warrants to the
 licensee that it is not a competitor of Gaussian, Inc. and that
 it will not use this program in any manner prohibited above.
 ---------------------------------------------------------------
  

 Cite this work as:
 Gaussian 09, Revision D.01,
 M. J. Frisch, G. W. Trucks, H. B. Schlegel, G. E. Scuseria, 
 M. A. Robb, J. R. Cheeseman, G. Scalmani, V. Barone, B. Mennucci, 
 G. A. Petersson, H. Nakatsuji, M. Caricato, X. Li, H. P. Hratchian, 
 A. F. Izmaylov, J. Bloino, G. Zheng, J. L. Sonnenberg, M. Hada, 
 M. Ehara, K. Toyota, R. Fukuda, J. Hasegawa, M. Ishida, T. Nakajima, 
 Y. Honda, O. Kitao, H. Nakai, T. Vreven, J. A. Montgomery, Jr., 
 J. E. Peralta, F. Ogliaro, M. Bearpark, J. J. Heyd, E. Brothers, 
 K. N. Kudin, V. N. Staroverov, T. Keith, R. Kobayashi, J. Normand, 
 K. Raghavachari, A. Rendell, J. C. Burant, S. S. Iyengar, J. Tomasi, 
 M. Cossi, N. Rega, J. M. Millam, M. Klene, J. E. Knox, J. B. Cross, 
 V. Bakken, C. Adamo, J. Jaramillo, R. Gomperts, R. E. Stratmann, 
 O. Yazyev, A. J. Austin, R. Cammi, C. Pomelli, J. W. Ochterski, 
 R. L. Martin, K. Morokuma, V. G. Zakrzewski, G. A. Voth, 
 P. Salvador, J. J. Dannenberg, S. Dapprich, A. D. Daniels, 
 O. Farkas, J. B. Foresman, J. V. Ortiz, J. Cioslowski, 
 and D. J. Fox, Gaussian, Inc., Wallingford CT, 2013.
 
 ******************************************
 Gaussian 09:  ES64L-G09RevD.01 24-Apr-2013
                12-Aug-2020 
 ******************************************
 %nprocshared=20
 Will use up to   20 processors via shared memory.
 -----------------------------------------------------
 #opt M06/lanl2dz integral=ultrafine geom=connectivity
 -----------------------------------------------------
 1/14=-1,18=20,19=15,26=4,38=1,57=2/1,3;
 2/9=110,12=2,17=6,18=5,40=1/2;
 3/5=6,6=3,11=2,16=1,25=1,30=1,71=1,74=-54,75=-5/1,2,3;
 4//1;
 5/5=2,38=5/2;
 6/7=2,8=2,9=2,10=2,28=1/1;
 7//1,2,3,16;
 1/14=-1,18=20,19=15,26=4/3(2);
 2/9=110/2;
 99//99;
 2/9=110/2;
 3/5=6,6=3,11=2,16=1,25=1,30=1,71=1,74=-54,75=-5/1,2,3;
 4/5=5,16=3,69=1/1;
 5/5=2,38=5/2;
 7//1,2,3,16;
 1/14=-1,18=20,19=15,26=4/3(-5);
 2/9=110/2;
 6/7=2,8=2,9=2,10=2,19=2,28=1/1;
 99/9=1/99;
 -------------------
 Title Card Required
 -------------------
 Symbolic Z-matrix:
 Charge =  0 Multiplicity = 1
 O                     4.07073   0.64006  -0.14138 
 O                     3.77202  -1.70173   0.15052 
 O                    -1.32406  -2.56417   0.20754 
 O                    -3.90889  -2.02448   0.13877 
 O                    -4.61572   0.12424  -0.15167 
 N                    -0.77924   1.44543  -0.31325 
 N                    -2.04186   0.95099  -0.2462 
 C                     0.35448   0.64861  -0.18811 
 C                     0.17325  -0.73694  -0.01182 
 C                     2.71517   0.32406  -0.11912 
 C                     1.66304   1.19418  -0.23967 
 C                     2.53136  -1.05874   0.05327 
 C                     1.28045  -1.60343   0.10971 
 C                    -0.73623   2.92586  -0.43562 
 C                    -1.1731   -1.33735   0.05363 
 C                    -2.24526  -0.34068  -0.07887 
 C                     4.79448  -0.6471    0.01938 
 C                    -0.61036   3.60151   0.94106 
 C                    -3.69415  -0.67967  -0.04047 
 H                     1.8442    2.24943  -0.36506 
 H                     1.08995  -2.65877   0.24199 
 H                     0.08847   3.19669  -1.09918 
 H                    -1.67902   3.19459  -0.91206 
 H                     5.39371  -0.60475   0.92944 
 H                     5.39453  -0.82911  -0.87301 
 H                    -1.46456   3.31822   1.56235 
 H                     0.31118   3.29854   1.44725 
 H                    -0.60518   4.6899    0.82147 
 H                    -4.89702  -2.16291   0.15251 
 

 GradGradGradGradGradGradGradGradGradGradGradGradGradGradGradGradGradGrad
 Berny optimization.
 Initialization pass.
                           ----------------------------
                           !    Initial Parameters    !
                           ! (Angstroms and Degrees)  !
 --------------------------                            --------------------------
 ! Name  Definition              Value          Derivative Info.                !
 --------------------------------------------------------------------------------
 ! R1    R(1,10)                 1.3921         estimate D2E/DX2                !
 ! R2    R(1,17)                 1.4854         estimate D2E/DX2                !
 ! R3    R(2,12)                 1.4008         estimate D2E/DX2                !
 ! R4    R(2,17)                 1.4747         estimate D2E/DX2                !
 ! R5    R(3,15)                 1.2456         estimate D2E/DX2                !
 ! R6    R(4,19)                 1.3736         estimate D2E/DX2                !
 ! R7    R(4,29)                 0.9979         estimate D2E/DX2                !
 ! R8    R(5,19)                 1.228          estimate D2E/DX2                !
 ! R9    R(6,7)                  1.3576         estimate D2E/DX2                !
 ! R10   R(6,8)                  1.3914         estimate D2E/DX2                !
 ! R11   R(6,14)                 1.4861         estimate D2E/DX2                !
 ! R12   R(7,16)                 1.3182         estimate D2E/DX2                !
 ! R13   R(8,9)                  1.4084         estimate D2E/DX2                !
 ! R14   R(8,11)                 1.4187         estimate D2E/DX2                !
 ! R15   R(9,13)                 1.4112         estimate D2E/DX2                !
 ! R16   R(9,15)                 1.4756         estimate D2E/DX2                !
 ! R17   R(10,11)                1.3706         estimate D2E/DX2                !
 ! R18   R(10,12)                1.4056         estimate D2E/DX2                !
 ! R19   R(11,20)                1.078          estimate D2E/DX2                !
 ! R20   R(12,13)                1.3655         estimate D2E/DX2                !
 ! R21   R(13,21)                1.0805         estimate D2E/DX2                !
 ! R22   R(14,18)                1.5387         estimate D2E/DX2                !
 ! R23   R(14,22)                1.0926         estimate D2E/DX2                !
 ! R24   R(14,23)                1.09           estimate D2E/DX2                !
 ! R25   R(15,16)                1.4698         estimate D2E/DX2                !
 ! R26   R(16,19)                1.4885         estimate D2E/DX2                !
 ! R27   R(17,24)                1.0904         estimate D2E/DX2                !
 ! R28   R(17,25)                1.0907         estimate D2E/DX2                !
 ! R29   R(18,26)                1.0936         estimate D2E/DX2                !
 ! R30   R(18,27)                1.0942         estimate D2E/DX2                !
 ! R31   R(18,28)                1.0949         estimate D2E/DX2                !
 ! A1    A(10,1,17)            106.0236         estimate D2E/DX2                !
 ! A2    A(12,2,17)            106.2385         estimate D2E/DX2                !
 ! A3    A(19,4,29)            107.0034         estimate D2E/DX2                !
 ! A4    A(7,6,8)              123.01           estimate D2E/DX2                !
 ! A5    A(7,6,14)             113.1906         estimate D2E/DX2                !
 ! A6    A(8,6,14)             123.6641         estimate D2E/DX2                !
 ! A7    A(6,7,16)             120.4388         estimate D2E/DX2                !
 ! A8    A(6,8,9)              118.0209         estimate D2E/DX2                !
 ! A9    A(6,8,11)             121.8759         estimate D2E/DX2                !
 ! A10   A(9,8,11)             120.1026         estimate D2E/DX2                !
 ! A11   A(8,9,13)             120.9214         estimate D2E/DX2                !
 ! A12   A(8,9,15)             121.5496         estimate D2E/DX2                !
 ! A13   A(13,9,15)            117.529          estimate D2E/DX2                !
 ! A14   A(1,10,11)            127.0115         estimate D2E/DX2                !
 ! A15   A(1,10,12)            110.6476         estimate D2E/DX2                !
 ! A16   A(11,10,12)           122.3408         estimate D2E/DX2                !
 ! A17   A(8,11,10)            117.4334         estimate D2E/DX2                !
 ! A18   A(8,11,20)            122.3898         estimate D2E/DX2                !
 ! A19   A(10,11,20)           120.1765         estimate D2E/DX2                !
 ! A20   A(2,12,10)            110.138          estimate D2E/DX2                !
 ! A21   A(2,12,13)            128.7114         estimate D2E/DX2                !
 ! A22   A(10,12,13)           121.1503         estimate D2E/DX2                !
 ! A23   A(9,13,12)            118.0508         estimate D2E/DX2                !
 ! A24   A(9,13,21)            118.1592         estimate D2E/DX2                !
 ! A25   A(12,13,21)           123.79           estimate D2E/DX2                !
 ! A26   A(6,14,18)            111.4765         estimate D2E/DX2                !
 ! A27   A(6,14,22)            108.5891         estimate D2E/DX2                !
 ! A28   A(6,14,23)            104.8659         estimate D2E/DX2                !
 ! A29   A(18,14,22)           111.8874         estimate D2E/DX2                !
 ! A30   A(18,14,23)           110.7066         estimate D2E/DX2                !
 ! A31   A(22,14,23)           109.0444         estimate D2E/DX2                !
 ! A32   A(3,15,9)             121.118          estimate D2E/DX2                !
 ! A33   A(3,15,16)            126.1987         estimate D2E/DX2                !
 ! A34   A(9,15,16)            112.6832         estimate D2E/DX2                !
 ! A35   A(7,16,15)            124.2845         estimate D2E/DX2                !
 ! A36   A(7,16,19)            112.1239         estimate D2E/DX2                !
 ! A37   A(15,16,19)           123.5915         estimate D2E/DX2                !
 ! A38   A(1,17,2)             106.947          estimate D2E/DX2                !
 ! A39   A(1,17,24)            108.9303         estimate D2E/DX2                !
 ! A40   A(1,17,25)            108.9123         estimate D2E/DX2                !
 ! A41   A(2,17,24)            109.5458         estimate D2E/DX2                !
 ! A42   A(2,17,25)            109.564          estimate D2E/DX2                !
 ! A43   A(24,17,25)           112.7684         estimate D2E/DX2                !
 ! A44   A(14,18,26)           109.3087         estimate D2E/DX2                !
 ! A45   A(14,18,27)           111.1751         estimate D2E/DX2                !
 ! A46   A(14,18,28)           109.8244         estimate D2E/DX2                !
 ! A47   A(26,18,27)           108.8629         estimate D2E/DX2                !
 ! A48   A(26,18,28)           108.859          estimate D2E/DX2                !
 ! A49   A(27,18,28)           108.7701         estimate D2E/DX2                !
 ! A50   A(4,19,5)             122.3734         estimate D2E/DX2                !
 ! A51   A(4,19,16)            112.2412         estimate D2E/DX2                !
 ! A52   A(5,19,16)            125.3854         estimate D2E/DX2                !
 ! D1    D(17,1,10,11)        -179.7107         estimate D2E/DX2                !
 ! D2    D(17,1,10,12)           0.4529         estimate D2E/DX2                !
 ! D3    D(10,1,17,2)           -0.7077         estimate D2E/DX2                !
 ! D4    D(10,1,17,24)        -119.0186         estimate D2E/DX2                !
 ! D5    D(10,1,17,25)         117.6152         estimate D2E/DX2                !
 ! D6    D(17,2,12,10)          -0.4428         estimate D2E/DX2                !
 ! D7    D(17,2,12,13)         179.7558         estimate D2E/DX2                !
 ! D8    D(12,2,17,1)            0.7029         estimate D2E/DX2                !
 ! D9    D(12,2,17,24)         118.6116         estimate D2E/DX2                !
 ! D10   D(12,2,17,25)        -117.1942         estimate D2E/DX2                !
 ! D11   D(29,4,19,5)            0.0582         estimate D2E/DX2                !
 ! D12   D(29,4,19,16)        -179.9989         estimate D2E/DX2                !
 ! D13   D(8,6,7,16)            -1.2221         estimate D2E/DX2                !
 ! D14   D(14,6,7,16)         -177.1315         estimate D2E/DX2                !
 ! D15   D(7,6,8,9)              1.353          estimate D2E/DX2                !
 ! D16   D(7,6,8,11)          -178.9238         estimate D2E/DX2                !
 ! D17   D(14,6,8,9)           176.8345         estimate D2E/DX2                !
 ! D18   D(14,6,8,11)           -3.4424         estimate D2E/DX2                !
 ! D19   D(7,6,14,18)           93.1926         estimate D2E/DX2                !
 ! D20   D(7,6,14,22)         -143.0987         estimate D2E/DX2                !
 ! D21   D(7,6,14,23)          -26.646          estimate D2E/DX2                !
 ! D22   D(8,6,14,18)          -82.6859         estimate D2E/DX2                !
 ! D23   D(8,6,14,22)           41.0228         estimate D2E/DX2                !
 ! D24   D(8,6,14,23)          157.4755         estimate D2E/DX2                !
 ! D25   D(6,7,16,15)            0.3037         estimate D2E/DX2                !
 ! D26   D(6,7,16,19)         -179.6275         estimate D2E/DX2                !
 ! D27   D(6,8,9,13)           179.4303         estimate D2E/DX2                !
 ! D28   D(6,8,9,15)            -0.6039         estimate D2E/DX2                !
 ! D29   D(11,8,9,13)           -0.298          estimate D2E/DX2                !
 ! D30   D(11,8,9,15)          179.6679         estimate D2E/DX2                !
 ! D31   D(6,8,11,10)         -179.3908         estimate D2E/DX2                !
 ! D32   D(6,8,11,20)            0.7975         estimate D2E/DX2                !
 ! D33   D(9,8,11,10)            0.3267         estimate D2E/DX2                !
 ! D34   D(9,8,11,20)         -179.4849         estimate D2E/DX2                !
 ! D35   D(8,9,13,12)            0.0929         estimate D2E/DX2                !
 ! D36   D(8,9,13,21)         -179.9096         estimate D2E/DX2                !
 ! D37   D(15,9,13,12)        -179.8742         estimate D2E/DX2                !
 ! D38   D(15,9,13,21)           0.1232         estimate D2E/DX2                !
 ! D39   D(8,9,15,3)           179.8787         estimate D2E/DX2                !
 ! D40   D(8,9,15,16)           -0.1972         estimate D2E/DX2                !
 ! D41   D(13,9,15,3)           -0.1544         estimate D2E/DX2                !
 ! D42   D(13,9,15,16)         179.7697         estimate D2E/DX2                !
 ! D43   D(1,10,11,8)         -179.9845         estimate D2E/DX2                !
 ! D44   D(1,10,11,20)          -0.1685         estimate D2E/DX2                !
 ! D45   D(12,10,11,8)          -0.1657         estimate D2E/DX2                !
 ! D46   D(12,10,11,20)        179.6503         estimate D2E/DX2                !
 ! D47   D(1,10,12,2)           -0.009          estimate D2E/DX2                !
 ! D48   D(1,10,12,13)         179.81           estimate D2E/DX2                !
 ! D49   D(11,10,12,2)        -179.8543         estimate D2E/DX2                !
 ! D50   D(11,10,12,13)         -0.0354         estimate D2E/DX2                !
 ! D51   D(2,12,13,9)          179.8558         estimate D2E/DX2                !
 ! D52   D(2,12,13,21)          -0.1415         estimate D2E/DX2                !
 ! D53   D(10,12,13,9)           0.0737         estimate D2E/DX2                !
 ! D54   D(10,12,13,21)       -179.9236         estimate D2E/DX2                !
 ! D55   D(6,14,18,26)         -59.2894         estimate D2E/DX2                !
 ! D56   D(6,14,18,27)          60.916          estimate D2E/DX2                !
 ! D57   D(6,14,18,28)        -178.6557         estimate D2E/DX2                !
 ! D58   D(22,14,18,26)        178.8917         estimate D2E/DX2                !
 ! D59   D(22,14,18,27)        -60.9029         estimate D2E/DX2                !
 ! D60   D(22,14,18,28)         59.5254         estimate D2E/DX2                !
 ! D61   D(23,14,18,26)         57.0354         estimate D2E/DX2                !
 ! D62   D(23,14,18,27)        177.2408         estimate D2E/DX2                !
 ! D63   D(23,14,18,28)        -62.3309         estimate D2E/DX2                !
 ! D64   D(3,15,16,7)         -179.7095         estimate D2E/DX2                !
 ! D65   D(3,15,16,19)           0.2139         estimate D2E/DX2                !
 ! D66   D(9,15,16,7)            0.371          estimate D2E/DX2                !
 ! D67   D(9,15,16,19)        -179.7055         estimate D2E/DX2                !
 ! D68   D(7,16,19,4)         -179.775          estimate D2E/DX2                !
 ! D69   D(7,16,19,5)            0.1659         estimate D2E/DX2                !
 ! D70   D(15,16,19,4)           0.2932         estimate D2E/DX2                !
 ! D71   D(15,16,19,5)        -179.7659         estimate D2E/DX2                !
 --------------------------------------------------------------------------------
 Trust Radius=3.00D-01 FncErr=1.00D-07 GrdErr=1.00D-06
 Number of steps in this run=    164 maximum allowed number of steps=    174.
 GradGradGradGradGradGradGradGradGradGradGradGradGradGradGradGradGradGrad

                          Input orientation:                          
 ---------------------------------------------------------------------
 Center     Atomic      Atomic             Coordinates (Angstroms)
 Number     Number       Type             X           Y           Z
 ---------------------------------------------------------------------
      1          8           0        4.070725    0.640055   -0.141378
      2          8           0        3.772018   -1.701729    0.150516
      3          8           0       -1.324057   -2.564169    0.207535
      4          8           0       -3.908889   -2.024476    0.138768
      5          8           0       -4.615719    0.124235   -0.151674
      6          7           0       -0.779241    1.445431   -0.313246
      7          7           0       -2.041862    0.950985   -0.246199
      8          6           0        0.354480    0.648612   -0.188112
      9          6           0        0.173250   -0.736935   -0.011815
     10          6           0        2.715169    0.324059   -0.119116
     11          6           0        1.663044    1.194178   -0.239668
     12          6           0        2.531362   -1.058741    0.053270
     13          6           0        1.280447   -1.603426    0.109710
     14          6           0       -0.736227    2.925864   -0.435619
     15          6           0       -1.173103   -1.337351    0.053629
     16          6           0       -2.245261   -0.340678   -0.078870
     17          6           0        4.794484   -0.647100    0.019379
     18          6           0       -0.610356    3.601510    0.941061
     19          6           0       -3.694151   -0.679671   -0.040468
     20          1           0        1.844204    2.249431   -0.365064
     21          1           0        1.089949   -2.658772    0.241993
     22          1           0        0.088474    3.196687   -1.099175
     23          1           0       -1.679017    3.194589   -0.912059
     24          1           0        5.393711   -0.604745    0.929436
     25          1           0        5.394532   -0.829105   -0.873013
     26          1           0       -1.464556    3.318222    1.562348
     27          1           0        0.311175    3.298543    1.447250
     28          1           0       -0.605176    4.689897    0.821471
     29          1           0       -4.897016   -2.162913    0.152505
 ---------------------------------------------------------------------
                    Distance matrix (angstroms):
                    1          2          3          4          5
     1  O    0.000000
     2  O    2.378735   0.000000
     3  O    6.284303   5.168852   0.000000
     4  O    8.417390   7.687694   2.641468   0.000000
     5  O    8.701752   8.589505   4.265160   2.280553   0.000000
     6  N    4.919384   5.552806   4.079820   4.694600   4.060816
     7  N    6.121387   6.402771   3.616272   3.533746   2.705031
     8  C    3.716549   4.161531   3.646366   5.042674   4.997917
     9  C    4.135601   3.729385   2.372515   4.283024   4.867792
    10  C    1.392078   2.300749   4.976335   7.032799   7.333683
    11  C    2.472578   3.603650   4.821611   6.445881   6.369881
    12  C    2.300746   1.400756   4.141783   6.512817   7.247220
    13  C    3.589137   2.493843   2.777776   5.206471   6.149627
    14  C    5.330881   6.487098   5.558746   5.907755   4.793768
    15  C    5.607664   4.959474   1.245615   2.822041   3.745663
    16  C    6.391981   6.173550   2.423749   2.377015   2.416716
    17  C    1.485408   1.474746   6.414601   8.812498   9.443312
    18  C    5.643971   6.924919   6.250042   6.570823   5.415574
    19  C    7.876875   7.538220   3.038122   1.373586   1.227974
    20  H    2.756360   4.426506   5.791070   7.184581   6.803866
    21  H    4.462539   2.849174   2.416105   5.039977   6.360405
    22  H    4.828257   6.254974   6.073730   6.691185   5.697995
    23  H    6.338701   7.403835   5.877311   5.771933   4.316188
    24  H    2.108663   2.107126   7.034834   9.443472  10.094003
    25  H    2.108598   2.107519   7.022640   9.434313  10.081384
    26  H    6.380799   7.390188   6.038028   6.045309   4.803046
    27  H    4.870884   6.217851   6.211463   6.917774   6.075119
    28  H    6.260379   7.775789   7.315407   7.514214   6.154408
    29  H    9.400180   8.681293   3.595841   0.997872   2.324371
                    6          7          8          9         10
     6  N    0.000000
     7  N    1.357639   0.000000
     8  C    1.391367   2.416042   0.000000
     9  C    2.400171   2.794768   1.408427   0.000000
    10  C    3.675060   4.799847   2.383893   2.756551   0.000000
    11  C    2.456277   3.712885   1.418675   2.449612   1.370623
    12  C    4.167170   5.004304   2.777073   2.380859   1.405574
    13  C    3.703611   4.205880   2.453118   1.411191   2.413708
    14  C    1.486105   2.375018   2.537081   3.797743   4.333786
    15  C    2.834361   2.465993   2.517141   1.475618   4.231877
    16  C    2.322570   1.318243   2.783753   2.451675   5.004934
    17  C    5.962863   7.025670   4.629855   4.622212   2.299105
    18  C    2.500097   3.237913   3.305381   4.510445   4.787983
    19  C    3.617619   2.330541   4.263514   3.867931   6.487915
    20  H    2.744370   4.098975   2.193903   3.440240   2.127470
    21  H    4.543858   4.803844   3.415361   2.144344   3.415995
    22  H    2.106540   3.210775   2.719096   4.082024   4.013980
    23  H    2.056144   2.368287   3.337845   4.438267   5.308255
    24  H    6.622146   7.687012   5.311654   5.306283   3.022702
    25  H    6.603206   7.672130   5.296684   5.292631   3.012828
    26  H    2.737673   3.034458   3.674210   4.648085   5.409476
    27  H    2.778917   3.730359   3.114228   4.293364   4.132825
    28  H    3.441575   4.145292   4.274597   5.545342   5.565064
    29  H    5.494829   4.243493   5.966482   5.269536   8.012750
                   11         12         13         14         15
    11  C    0.000000
    12  C    2.432166   0.000000
    13  C    2.845177   1.365524   0.000000
    14  C    2.965406   5.176217   4.987868   0.000000
    15  C    3.812924   3.714927   2.468572   4.313378   0.000000
    16  C    4.201962   4.832101   3.749762   3.615902   1.469842
    17  C    3.641885   2.300504   3.642962   6.600141   6.007472
    18  C    3.515354   5.690036   5.599789   1.538697   5.049413
    19  C    5.678955   6.237747   5.061867   4.680314   2.607121
    20  H    1.078008   3.404584   3.922721   2.668551   4.705789
    21  H    3.925004   2.161802   1.080529   5.914578   2.627363
    22  H    2.688506   5.040288   5.091492   1.092604   4.845414
    23  H    3.952610   6.062175   5.729170   1.089982   4.661221
    24  H    4.303580   3.027676   4.311410   7.204493   6.665343
    25  H    4.291713   3.018025   4.300118   7.202591   6.652128
    26  H    4.188163   6.115757   5.819606   2.162471   4.902605
    27  H    3.016885   5.085109   5.172794   2.186581   5.063277
    28  H    4.300103   6.593545   6.608184   2.170083   6.102445
    29  H    7.379583   7.510649   6.202895   6.599523   3.815607
                   16         17         18         19         20
    16  C    0.000000
    17  C    7.047096   0.000000
    18  C    4.387940   6.936316   0.000000
    19  C    1.488514   8.488908   5.366722   0.000000
    20  H    4.849154   4.152330   3.091754   6.273626   0.000000
    21  H    4.074327   4.221370   6.524635   5.185001   5.002787
    22  H    4.358932   6.178381   2.194267   5.518629   2.125747
    23  H    3.675996   7.585009   2.177539   4.453125   3.688579
    24  H    7.709754   1.090445   7.330862   9.139779   4.735087
    25  H    7.696471   1.090664   7.679837   9.127958   4.726545
    26  H    4.085419   7.568363   1.093575   4.850078   3.975566
    27  H    4.701950   6.140600   1.094183   5.837990   2.595245
    28  H    5.367232   7.634345   1.094950   6.254356   3.655571
    29  H    3.225815   9.810229   7.226745   1.919409   8.073457
                   21         22         23         24         25
    21  H    0.000000
    22  H    6.089999   0.000000
    23  H    6.577298   1.777369   0.000000
    24  H    4.818088   6.834595   8.237082   0.000000
    25  H    4.808363   6.664263   8.137981   1.816359   0.000000
    26  H    6.632744   3.083890   2.486759   7.926290   8.377254
    27  H    6.127702   2.558173   3.088367   6.429305   6.947058
    28  H    7.563873   2.529764   2.528677   8.001971   8.326293
    29  H    6.008131   7.426111   6.339688  10.436981  10.428168
                   26         27         28         29
    26  H    0.000000
    27  H    1.779566   0.000000
    28  H    1.780147   1.779653   0.000000
    29  H    6.619085   7.656965   8.113471   0.000000
 Stoichiometry    C12H10N2O5
 Framework group  C1[X(C12H10N2O5)]
 Deg. of freedom    81
 Full point group                 C1      NOp   1
 Largest Abelian subgroup         C1      NOp   1
 Largest concise Abelian subgroup C1      NOp   1
                         Standard orientation:                         
 ---------------------------------------------------------------------
 Center     Atomic      Atomic             Coordinates (Angstroms)
 Number     Number       Type             X           Y           Z
 ---------------------------------------------------------------------
      1          8           0        4.070725    0.640055   -0.141378
      2          8           0        3.772018   -1.701729    0.150516
      3          8           0       -1.324057   -2.564169    0.207535
      4          8           0       -3.908889   -2.024476    0.138768
      5          8           0       -4.615719    0.124235   -0.151674
      6          7           0       -0.779241    1.445431   -0.313246
      7          7           0       -2.041862    0.950985   -0.246199
      8          6           0        0.354480    0.648612   -0.188112
      9          6           0        0.173250   -0.736935   -0.011815
     10          6           0        2.715169    0.324059   -0.119116
     11          6           0        1.663044    1.194178   -0.239668
     12          6           0        2.531362   -1.058741    0.053270
     13          6           0        1.280447   -1.603426    0.109710
     14          6           0       -0.736227    2.925864   -0.435619
     15          6           0       -1.173103   -1.337351    0.053629
     16          6           0       -2.245261   -0.340678   -0.078870
     17          6           0        4.794484   -0.647100    0.019379
     18          6           0       -0.610356    3.601510    0.941061
     19          6           0       -3.694151   -0.679671   -0.040468
     20          1           0        1.844204    2.249431   -0.365064
     21          1           0        1.089949   -2.658772    0.241993
     22          1           0        0.088474    3.196687   -1.099175
     23          1           0       -1.679017    3.194589   -0.912059
     24          1           0        5.393711   -0.604745    0.929436
     25          1           0        5.394532   -0.829105   -0.873013
     26          1           0       -1.464556    3.318222    1.562348
     27          1           0        0.311175    3.298543    1.447250
     28          1           0       -0.605176    4.689897    0.821471
     29          1           0       -4.897016   -2.162913    0.152505
 ---------------------------------------------------------------------
 Rotational constants (GHZ):      0.6812921      0.2475998      0.1853128
 Standard basis: LANL2DZ (5D, 7F)
 There are   191 symmetry adapted cartesian basis functions of A   symmetry.
 There are   191 symmetry adapted basis functions of A   symmetry.
   191 basis functions,   515 primitive gaussians,   191 cartesian basis functions
    68 alpha electrons       68 beta electrons
       nuclear repulsion energy      1409.5243524372 Hartrees.
 NAtoms=   29 NActive=   29 NUniq=   29 SFac= 1.00D+00 NAtFMM=   60 NAOKFM=F Big=F
 Integral buffers will be    131072 words long.
 Raffenetti 2 integral format.
 Two-electron integral symmetry is turned on.
 One-electron integrals computed using PRISM.
 PrsmSu:  requested number of processors reduced to:   9 ShMem   1 Linda.
   1 Symmetry operations used in ECPInt.
 ECPInt:  NShTT=    6670 NPrTT=   53537 LenC2=    6222 LenP2D=   28955.
 LDataN:  DoStor=T MaxTD1= 2 Len=   12
 Number of processors reduced to  11 by ecpmxn.
 NBasis=   191 RedAO= T EigKep=  2.40D-04  NBF=   191
 NBsUse=   191 1.00D-06 EigRej= -1.00D+00 NBFU=   191
 ExpMin= 1.15D-01 ExpMax= 7.82D+03 ExpMxC= 2.73D+02 IAcc=3 IRadAn=         5 AccDes= 0.00D+00
 Harris functional with IExCor= 1009 and IRadAn=       5 diagonalized for initial guess.
 HarFok:  IExCor= 1009 AccDes= 0.00D+00 IRadAn=         5 IDoV= 1 UseB2=F ITyADJ=14
 ICtDFT=  3500011 ScaDFX=  1.000000  1.000000  1.000000  1.000000
 FoFCou: FMM=F IPFlag=           0 FMFlag=      100000 FMFlg1=           0
         NFxFlg=           0 DoJE=T BraDBF=F KetDBF=T FulRan=T
         wScrn=  0.000000 ICntrl=     500 IOpCl=  0 I1Cent=   200000004 NGrid=           0
         NMat0=    1 NMatS0=      1 NMatT0=    0 NMatD0=    1 NMtDS0=    0 NMtDT0=    0
 Petite list used in FoFCou.
 Requested convergence on RMS density matrix=1.00D-08 within 128 cycles.
 Requested convergence on MAX density matrix=1.00D-06.
 Requested convergence on             energy=1.00D-06.
 No special actions if energy rises.
 Integral accuracy reduced to 1.0D-05 until final iterations.
 EnCoef did     1 forward-backward iterations
 Initial convergence to 1.0D-05 achieved.  Increase integral accuracy.
 SCF Done:  E(RM06) =  -948.153893419     A.U. after   19 cycles
            NFock= 19  Conv=0.34D-08     -V/T= 2.0046

 **********************************************************************

            Population analysis using the SCF density.

 **********************************************************************

 Orbital symmetries:
       Occupied  (A) (A) (A) (A) (A) (A) (A) (A) (A) (A) (A) (A)
                 (A) (A) (A) (A) (A) (A) (A) (A) (A) (A) (A) (A)
                 (A) (A) (A) (A) (A) (A) (A) (A) (A) (A) (A) (A)
                 (A) (A) (A) (A) (A) (A) (A) (A) (A) (A) (A) (A)
                 (A) (A) (A) (A) (A) (A) (A) (A) (A) (A) (A) (A)
                 (A) (A) (A) (A) (A) (A) (A) (A)
       Virtual   (A) (A) (A) (A) (A) (A) (A) (A) (A) (A) (A) (A)
                 (A) (A) (A) (A) (A) (A) (A) (A) (A) (A) (A) (A)
                 (A) (A) (A) (A) (A) (A) (A) (A) (A) (A) (A) (A)
                 (A) (A) (A) (A) (A) (A) (A) (A) (A) (A) (A) (A)
                 (A) (A) (A) (A) (A) (A) (A) (A) (A) (A) (A) (A)
                 (A) (A) (A) (A) (A) (A) (A) (A) (A) (A) (A) (A)
                 (A) (A) (A) (A) (A) (A) (A) (A) (A) (A) (A) (A)
                 (A) (A) (A) (A) (A) (A) (A) (A) (A) (A) (A) (A)
                 (A) (A) (A) (A) (A) (A) (A) (A) (A) (A) (A) (A)
                 (A) (A) (A) (A) (A) (A) (A) (A) (A) (A) (A) (A)
                 (A) (A) (A)
 The electronic state is 1-A.
 Alpha  occ. eigenvalues --  -19.30063 -19.29370 -19.26501 -19.22196 -19.20299
 Alpha  occ. eigenvalues --  -14.51522 -14.49083 -10.40586 -10.40126 -10.36321
 Alpha  occ. eigenvalues --  -10.35444 -10.35198 -10.34790 -10.31947 -10.31790
 Alpha  occ. eigenvalues --  -10.29755 -10.29248 -10.28677 -10.26170  -1.17545
 Alpha  occ. eigenvalues --   -1.13946  -1.09686  -1.08834  -1.06054  -1.04896
 Alpha  occ. eigenvalues --   -0.93171  -0.90342  -0.83192  -0.80923  -0.79302
 Alpha  occ. eigenvalues --   -0.74917  -0.72204  -0.69241  -0.68355  -0.65160
 Alpha  occ. eigenvalues --   -0.63793  -0.61736  -0.57583  -0.56175  -0.55435
 Alpha  occ. eigenvalues --   -0.54260  -0.51942  -0.50727  -0.50212  -0.49524
 Alpha  occ. eigenvalues --   -0.48305  -0.47539  -0.47036  -0.46462  -0.45513
 Alpha  occ. eigenvalues --   -0.44694  -0.42911  -0.42419  -0.41419  -0.40926
 Alpha  occ. eigenvalues --   -0.40399  -0.40268  -0.39312  -0.39092  -0.38978
 Alpha  occ. eigenvalues --   -0.36566  -0.33124  -0.32958  -0.29865  -0.29212
 Alpha  occ. eigenvalues --   -0.27969  -0.25383  -0.24269
 Alpha virt. eigenvalues --   -0.08331  -0.05455  -0.01250   0.02165   0.05204
 Alpha virt. eigenvalues --    0.07700   0.08611   0.09293   0.09901   0.11161
 Alpha virt. eigenvalues --    0.12133   0.12484   0.12750   0.14167   0.15050
 Alpha virt. eigenvalues --    0.16515   0.17054   0.18417   0.19283   0.19578
 Alpha virt. eigenvalues --    0.19918   0.20218   0.20617   0.21288   0.22446
 Alpha virt. eigenvalues --    0.24142   0.24511   0.25633   0.25815   0.26096
 Alpha virt. eigenvalues --    0.26979   0.27268   0.27861   0.28466   0.29611
 Alpha virt. eigenvalues --    0.30252   0.30740   0.30960   0.31960   0.32668
 Alpha virt. eigenvalues --    0.33254   0.34747   0.36013   0.36419   0.36857
 Alpha virt. eigenvalues --    0.37641   0.38221   0.39050   0.39740   0.40672
 Alpha virt. eigenvalues --    0.41443   0.42607   0.43507   0.44915   0.45762
 Alpha virt. eigenvalues --    0.46571   0.47393   0.48002   0.48473   0.49711
 Alpha virt. eigenvalues --    0.51118   0.52418   0.52956   0.54238   0.55710
 Alpha virt. eigenvalues --    0.56976   0.59900   0.61928   0.62418   0.64681
 Alpha virt. eigenvalues --    0.65042   0.66995   0.68265   0.68662   0.69432
 Alpha virt. eigenvalues --    0.70920   0.71582   0.73901   0.75133   0.77413
 Alpha virt. eigenvalues --    0.79127   0.82268   0.83975   0.84497   0.85666
 Alpha virt. eigenvalues --    0.86536   0.87441   0.87631   0.88590   0.91071
 Alpha virt. eigenvalues --    0.93454   0.94729   0.97349   0.98969   1.04484
 Alpha virt. eigenvalues --    1.05807   1.06024   1.07468   1.07998   1.08285
 Alpha virt. eigenvalues --    1.10596   1.12409   1.13897   1.15071   1.15677
 Alpha virt. eigenvalues --    1.20359   1.24664   1.27263   1.30509   1.33070
 Alpha virt. eigenvalues --    1.36450   1.41804   1.47495   1.48429   1.52722
 Alpha virt. eigenvalues --    1.59448   1.70717   1.81272   1.88922   1.96076
 Alpha virt. eigenvalues --    1.97762   2.03917   2.04273
          Condensed to atoms (all electrons):
               1          2          3          4          5          6
     1  O    8.028776  -0.044094   0.000000   0.000000   0.000000   0.000039
     2  O   -0.044094   8.025976   0.000003   0.000000   0.000000   0.000000
     3  O    0.000000   0.000003   7.785642  -0.014295  -0.000015   0.000984
     4  O    0.000000   0.000000  -0.014295   8.090737  -0.082362  -0.000112
     5  O    0.000000   0.000000  -0.000015  -0.082362   7.815082  -0.000215
     6  N    0.000039   0.000000   0.000984  -0.000112  -0.000215   7.027618
     7  N    0.000001   0.000000   0.003816  -0.000166  -0.000174   0.207444
     8  C   -0.001007   0.000036  -0.008230  -0.000040  -0.000524   0.077312
     9  C    0.000040  -0.001639  -0.114462  -0.000884  -0.000078   0.032393
    10  C    0.262356  -0.031032   0.000082   0.000000   0.000000  -0.009903
    11  C   -0.048993   0.002812  -0.000338  -0.000002  -0.000013  -0.042583
    12  C   -0.034098   0.243812   0.002166   0.000001   0.000000   0.000241
    13  C    0.001376  -0.047543   0.024781   0.000149   0.000015   0.008435
    14  C   -0.000014  -0.000002   0.000017   0.000008   0.000376   0.246211
    15  C    0.000018   0.000175   0.630792   0.015287  -0.001619  -0.043576
    16  C   -0.000004  -0.000007  -0.057386  -0.065617  -0.034470  -0.113392
    17  C    0.256566   0.268865   0.000000   0.000000   0.000000  -0.000010
    18  C    0.000001   0.000000   0.000000   0.000000  -0.000021  -0.069305
    19  C    0.000000   0.000000  -0.000260   0.258280   0.592800   0.025197
    20  H   -0.001180  -0.000142   0.000001   0.000000   0.000000  -0.004577
    21  H   -0.000120  -0.000323   0.010960   0.000002   0.000000  -0.000097
    22  H   -0.000002   0.000000   0.000000   0.000000   0.000000  -0.034814
    23  H    0.000000   0.000000   0.000000   0.000000  -0.000004  -0.036881
    24  H   -0.040981  -0.042337   0.000000   0.000000   0.000000   0.000000
    25  H   -0.041783  -0.042931   0.000000   0.000000   0.000000   0.000000
    26  H    0.000000   0.000000   0.000000   0.000000   0.000002  -0.002015
    27  H    0.000000   0.000000   0.000000   0.000000   0.000000  -0.003252
    28  H    0.000000   0.000000   0.000000   0.000000   0.000000   0.004113
    29  H    0.000000   0.000000   0.000719   0.246384   0.003172   0.000006
               7          8          9         10         11         12
     1  O    0.000001  -0.001007   0.000040   0.262356  -0.048993  -0.034098
     2  O    0.000000   0.000036  -0.001639  -0.031032   0.002812   0.243812
     3  O    0.003816  -0.008230  -0.114462   0.000082  -0.000338   0.002166
     4  O   -0.000166  -0.000040  -0.000884   0.000000  -0.000002   0.000001
     5  O   -0.000174  -0.000524  -0.000078   0.000000  -0.000013   0.000000
     6  N    0.207444   0.077312   0.032393  -0.009903  -0.042583   0.000241
     7  N    6.399523  -0.073528   0.008654   0.000156   0.014689  -0.000112
     8  C   -0.073528   5.440080   0.148421  -0.050153   0.379031  -0.063509
     9  C    0.008654   0.148421   5.589561  -0.088477  -0.119954  -0.045468
    10  C    0.000156  -0.050153  -0.088477   5.065998   0.450516   0.356219
    11  C    0.014689   0.379031  -0.119954   0.450516   5.673569  -0.117487
    12  C   -0.000112  -0.063509  -0.045468   0.356219  -0.117487   5.112840
    13  C   -0.001084  -0.126028   0.472531  -0.101169  -0.068899   0.440387
    14  C   -0.076625  -0.156708   0.007977   0.001563   0.033782   0.000020
    15  C    0.000744   0.054598   0.060956  -0.000459   0.003469  -0.015428
    16  C    0.500219  -0.047391  -0.105535  -0.001435  -0.010423   0.000264
    17  C   -0.000001  -0.000429  -0.000246  -0.094357   0.008257  -0.101643
    18  C   -0.001464  -0.009401  -0.001154   0.000491   0.001349   0.000051
    19  C   -0.051234  -0.016436  -0.009894  -0.000039  -0.000647   0.000047
    20  H   -0.000028  -0.027583  -0.003830   0.003453   0.294075   0.002217
    21  H   -0.000070   0.003930  -0.008398  -0.002287   0.000532  -0.029767
    22  H    0.002519  -0.004913  -0.002850   0.003084   0.012629   0.000092
    23  H    0.008215   0.004505   0.000182  -0.000015  -0.000368  -0.000003
    24  H    0.000000  -0.000013  -0.000017   0.001668  -0.000104   0.002540
    25  H    0.000000  -0.000022  -0.000014   0.002137   0.000057   0.002618
    26  H    0.002818   0.000753  -0.000157   0.000016   0.000045   0.000000
    27  H    0.000084   0.002516   0.000187   0.000203   0.002459  -0.000015
    28  H   -0.000067   0.000200   0.000020  -0.000013  -0.000357   0.000000
    29  H   -0.000005  -0.000002   0.000068   0.000000   0.000000   0.000000
              13         14         15         16         17         18
     1  O    0.001376  -0.000014   0.000018  -0.000004   0.256566   0.000001
     2  O   -0.047543  -0.000002   0.000175  -0.000007   0.268865   0.000000
     3  O    0.024781   0.000017   0.630792  -0.057386   0.000000   0.000000
     4  O    0.000149   0.000008   0.015287  -0.065617   0.000000   0.000000
     5  O    0.000015   0.000376  -0.001619  -0.034470   0.000000  -0.000021
     6  N    0.008435   0.246211  -0.043576  -0.113392  -0.000010  -0.069305
     7  N   -0.001084  -0.076625   0.000744   0.500219  -0.000001  -0.001464
     8  C   -0.126028  -0.156708   0.054598  -0.047391  -0.000429  -0.009401
     9  C    0.472531   0.007977   0.060956  -0.105535  -0.000246  -0.001154
    10  C   -0.101169   0.001563  -0.000459  -0.001435  -0.094357   0.000491
    11  C   -0.068899   0.033782   0.003469  -0.010423   0.008257   0.001349
    12  C    0.440387   0.000020  -0.015428   0.000264  -0.101643   0.000051
    13  C    5.647985  -0.000385  -0.044647  -0.013512   0.005665   0.000059
    14  C   -0.000385   5.380705  -0.001659  -0.000720  -0.000004   0.285123
    15  C   -0.044647  -0.001659   5.360965  -0.096079  -0.000046  -0.000091
    16  C   -0.013512  -0.000720  -0.096079   6.258450  -0.000004  -0.000067
    17  C    0.005665  -0.000004  -0.000046  -0.000004   5.138706   0.000001
    18  C    0.000059   0.285123  -0.000091  -0.000067   0.000001   5.384961
    19  C    0.000972   0.001247  -0.088290  -0.029308   0.000000  -0.000074
    20  H    0.001083   0.007545  -0.000013   0.000048  -0.000329  -0.003933
    21  H    0.307996   0.000003  -0.002510   0.001163  -0.000318   0.000000
    22  H   -0.000046   0.337862   0.000067   0.000112   0.000001  -0.042587
    23  H    0.000020   0.364832  -0.000024   0.000962   0.000000  -0.033767
    24  H    0.000107   0.000000   0.000000   0.000000   0.335809   0.000000
    25  H    0.000132   0.000000   0.000000   0.000000   0.335064   0.000000
    26  H   -0.000001  -0.037125   0.000050   0.000108   0.000000   0.375509
    27  H    0.000020  -0.036503  -0.000001  -0.000023   0.000000   0.370225
    28  H    0.000000  -0.027608  -0.000001  -0.000014   0.000000   0.370113
    29  H   -0.000003   0.000000   0.000298   0.006208   0.000000   0.000000
              19         20         21         22         23         24
     1  O    0.000000  -0.001180  -0.000120  -0.000002   0.000000  -0.040981
     2  O    0.000000  -0.000142  -0.000323   0.000000   0.000000  -0.042337
     3  O   -0.000260   0.000001   0.010960   0.000000   0.000000   0.000000
     4  O    0.258280   0.000000   0.000002   0.000000   0.000000   0.000000
     5  O    0.592800   0.000000   0.000000   0.000000  -0.000004   0.000000
     6  N    0.025197  -0.004577  -0.000097  -0.034814  -0.036881   0.000000
     7  N   -0.051234  -0.000028  -0.000070   0.002519   0.008215   0.000000
     8  C   -0.016436  -0.027583   0.003930  -0.004913   0.004505  -0.000013
     9  C   -0.009894  -0.003830  -0.008398  -0.002850   0.000182  -0.000017
    10  C   -0.000039   0.003453  -0.002287   0.003084  -0.000015   0.001668
    11  C   -0.000647   0.294075   0.000532   0.012629  -0.000368  -0.000104
    12  C    0.000047   0.002217  -0.029767   0.000092  -0.000003   0.002540
    13  C    0.000972   0.001083   0.307996  -0.000046   0.000020   0.000107
    14  C    0.001247   0.007545   0.000003   0.337862   0.364832   0.000000
    15  C   -0.088290  -0.000013  -0.002510   0.000067  -0.000024   0.000000
    16  C   -0.029308   0.000048   0.001163   0.000112   0.000962   0.000000
    17  C    0.000000  -0.000329  -0.000318   0.000001   0.000000   0.335809
    18  C   -0.000074  -0.003933   0.000000  -0.042587  -0.033767   0.000000
    19  C    5.104797   0.000000  -0.000020   0.000010  -0.000183   0.000000
    20  H    0.000000   0.473685   0.000009   0.002759   0.000095   0.000002
    21  H   -0.000020   0.000009   0.419250   0.000000   0.000000   0.000002
    22  H    0.000010   0.002759   0.000000   0.540437  -0.024385   0.000000
    23  H   -0.000183   0.000095   0.000000  -0.024385   0.453344   0.000000
    24  H    0.000000   0.000002   0.000002   0.000000   0.000000   0.544214
    25  H    0.000000   0.000003   0.000003   0.000000   0.000000  -0.050642
    26  H    0.000007   0.000046   0.000000   0.003331  -0.003529   0.000000
    27  H   -0.000002  -0.000103   0.000000  -0.004166   0.002872   0.000000
    28  H    0.000000   0.000091   0.000000  -0.001085  -0.001294   0.000000
    29  H   -0.028438   0.000000   0.000000   0.000000   0.000000   0.000000
              25         26         27         28         29
     1  O   -0.041783   0.000000   0.000000   0.000000   0.000000
     2  O   -0.042931   0.000000   0.000000   0.000000   0.000000
     3  O    0.000000   0.000000   0.000000   0.000000   0.000719
     4  O    0.000000   0.000000   0.000000   0.000000   0.246384
     5  O    0.000000   0.000002   0.000000   0.000000   0.003172
     6  N    0.000000  -0.002015  -0.003252   0.004113   0.000006
     7  N    0.000000   0.002818   0.000084  -0.000067  -0.000005
     8  C   -0.000022   0.000753   0.002516   0.000200  -0.000002
     9  C   -0.000014  -0.000157   0.000187   0.000020   0.000068
    10  C    0.002137   0.000016   0.000203  -0.000013   0.000000
    11  C    0.000057   0.000045   0.002459  -0.000357   0.000000
    12  C    0.002618   0.000000  -0.000015   0.000000   0.000000
    13  C    0.000132  -0.000001   0.000020   0.000000  -0.000003
    14  C    0.000000  -0.037125  -0.036503  -0.027608   0.000000
    15  C    0.000000   0.000050  -0.000001  -0.000001   0.000298
    16  C    0.000000   0.000108  -0.000023  -0.000014   0.006208
    17  C    0.335064   0.000000   0.000000   0.000000   0.000000
    18  C    0.000000   0.375509   0.370225   0.370113   0.000000
    19  C    0.000000   0.000007  -0.000002   0.000000  -0.028438
    20  H    0.000003   0.000046  -0.000103   0.000091   0.000000
    21  H    0.000003   0.000000   0.000000   0.000000   0.000000
    22  H    0.000000   0.003331  -0.004166  -0.001085   0.000000
    23  H    0.000000  -0.003529   0.002872  -0.001294   0.000000
    24  H   -0.050642   0.000000   0.000000   0.000000   0.000000
    25  H    0.545622   0.000000   0.000000   0.000000   0.000000
    26  H    0.000000   0.460050  -0.021733  -0.017826   0.000000
    27  H    0.000000  -0.021733   0.490621  -0.020099   0.000000
    28  H    0.000000  -0.017826  -0.020099   0.471183   0.000000
    29  H    0.000000   0.000000   0.000000   0.000000   0.363101
 Mulliken charges:
               1
     1  O   -0.336899
     2  O   -0.331630
     3  O   -0.264976
     4  O   -0.447369
     5  O   -0.291953
     6  N   -0.269261
     7  N    0.055675
     8  C    0.474535
     9  C    0.182067
    10  C    0.231394
    11  C   -0.467104
    12  C    0.244015
    13  C   -0.508396
    14  C   -0.329920
    15  C    0.167024
    16  C   -0.192147
    17  C   -0.151549
    18  C   -0.626018
    19  C    0.241471
    20  H    0.256608
    21  H    0.300061
    22  H    0.211945
    23  H    0.265425
    24  H    0.249751
    25  H    0.249757
    26  H    0.239650
    27  H    0.216709
    28  H    0.222644
    29  H    0.408493
 Sum of Mulliken charges =   0.00000
 Mulliken charges with hydrogens summed into heavy atoms:
               1
     1  O   -0.336899
     2  O   -0.331630
     3  O   -0.264976
     4  O   -0.038876
     5  O   -0.291953
     6  N   -0.269261
     7  N    0.055675
     8  C    0.474535
     9  C    0.182067
    10  C    0.231394
    11  C   -0.210497
    12  C    0.244015
    13  C   -0.208336
    14  C    0.147450
    15  C    0.167024
    16  C   -0.192147
    17  C    0.347959
    18  C    0.052985
    19  C    0.241471
 Electronic spatial extent (au):  <R**2>=           5482.8641
 Charge=              0.0000 electrons
 Dipole moment (field-independent basis, Debye):
    X=              5.4820    Y=              4.1858    Z=             -0.1929  Tot=              6.9000
 Quadrupole moment (field-independent basis, Debye-Ang):
   XX=           -102.5280   YY=           -109.0005   ZZ=           -106.5138
   XY=              2.1025   XZ=             -1.2844   YZ=              0.9210
 Traceless Quadrupole moment (field-independent basis, Debye-Ang):
   XX=              3.4861   YY=             -2.9864   ZZ=             -0.4997
   XY=              2.1025   XZ=             -1.2844   YZ=              0.9210
 Octapole moment (field-independent basis, Debye-Ang**2):
  XXX=            119.4757  YYY=             70.6012  ZZZ=              1.1986  XYY=            -15.5743
  XXY=            -79.1489  XXZ=             10.9782  XZZ=             -2.4105  YZZ=             -1.4817
  YYZ=             -5.9747  XYZ=             -0.1005
 Hexadecapole moment (field-independent basis, Debye-Ang**3):
 XXXX=          -4160.1758 YYYY=          -1845.7403 ZZZZ=           -186.4865 XXXY=            253.1158
 XXXZ=            -42.3923 YYYX=             -6.1214 YYYZ=             -6.1272 ZZZX=              0.7887
 ZZZY=             -3.7189 XXYY=          -1123.2792 XXZZ=           -795.6503 YYZZ=           -347.4959
 XXYZ=             13.1916 YYXZ=             -1.4637 ZZXY=              0.3568
 N-N= 1.409524352437D+03 E-N=-5.035341235386D+03  KE= 9.437665606819D+02
 PrsmSu:  requested number of processors reduced to:   9 ShMem   1 Linda.
   1 Symmetry operations used in ECPInt.
 ECPInt:  NShTT=    6670 NPrTT=   53537 LenC2=    6222 LenP2D=   28955.
 LDataN:  DoStor=T MaxTD1= 3 Len=   28
 Number of processors reduced to  11 by ecpmxn.
 Calling FoFJK, ICntrl=      2127 FMM=F ISym2X=0 I1Cent= 0 IOpClX= 0 NMat=1 NMatS=1 NMatT=0.
 ***** Axes restored to original set *****
 -------------------------------------------------------------------
 Center     Atomic                   Forces (Hartrees/Bohr)
 Number     Number              X              Y              Z
 -------------------------------------------------------------------
      1        8          -0.000098598   -0.010444946    0.001296144
      2        8           0.003053350    0.009920792   -0.001262641
      3        8          -0.000670637   -0.007191507    0.000850577
      4        8          -0.018556425    0.004404390   -0.000648709
      5        8          -0.008678528    0.005305924   -0.000753227
      6        7          -0.016656905    0.003902030    0.000180269
      7        7           0.018394148    0.013794887   -0.001593872
      8        6           0.004319615   -0.001765828    0.000808044
      9        6          -0.001943468   -0.003568147    0.000189077
     10        6           0.005328839    0.001376630   -0.000064563
     11        6          -0.002431148    0.006324879   -0.000754474
     12        6           0.007223268   -0.002826499    0.000335678
     13        6          -0.000584454   -0.003871033    0.000537263
     14        6           0.000369986   -0.004807713    0.005883728
     15        6           0.006209384    0.004678143   -0.000560387
     16        6          -0.006187914   -0.006301520    0.000818106
     17        6          -0.009938098    0.001259202   -0.000140916
     18        6          -0.000778765   -0.003030721   -0.006994704
     19        6           0.008877638   -0.008436712    0.001175144
     20        1           0.000573029    0.003956647   -0.000362489
     21        1          -0.000227355   -0.002968645    0.000392543
     22        1           0.000284906    0.000824965   -0.001358152
     23        1          -0.000225341    0.001476528   -0.000934373
     24        1           0.000025577    0.000118891    0.001252075
     25        1           0.000042725   -0.000198399   -0.001270084
     26        1          -0.000145734    0.000377080    0.000896142
     27        1           0.000694354    0.000159098    0.001028213
     28        1           0.000060208   -0.000520563    0.000735835
     29        1           0.011666342   -0.001947855    0.000319749
 -------------------------------------------------------------------
 Cartesian Forces:  Max     0.018556425 RMS     0.005297947

 GradGradGradGradGradGradGradGradGradGradGradGradGradGradGradGradGradGrad
 Berny optimization.
 FormGI is forming the generalized inverse of G from B-inverse, IUseBI=4.
 Internal  Forces:  Max     0.014901084 RMS     0.003130164
 Search for a local minimum.
 Step number   1 out of a maximum of  164
 All quantities printed in internal units (Hartrees-Bohrs-Radians)
 Mixed Optimization -- RFO/linear search
 Second derivative matrix not updated -- first step.
 ITU=  0
     Eigenvalues ---    0.00254   0.00553   0.00844   0.00918   0.01128
     Eigenvalues ---    0.01209   0.01275   0.01355   0.01469   0.01694
     Eigenvalues ---    0.01819   0.01862   0.01937   0.02041   0.02050
     Eigenvalues ---    0.02137   0.02143   0.02199   0.02258   0.02327
     Eigenvalues ---    0.04180   0.05211   0.05520   0.05705   0.07321
     Eigenvalues ---    0.09321   0.09808   0.11404   0.11685   0.12665
     Eigenvalues ---    0.16000   0.16000   0.16000   0.16000   0.16000
     Eigenvalues ---    0.16000   0.21998   0.23145   0.23846   0.24025
     Eigenvalues ---    0.24954   0.24971   0.24999   0.25000   0.25000
     Eigenvalues ---    0.25000   0.25000   0.25000   0.25000   0.25000
     Eigenvalues ---    0.28635   0.32621   0.33613   0.33880   0.34178
     Eigenvalues ---    0.34247   0.34316   0.34334   0.34403   0.34513
     Eigenvalues ---    0.34736   0.34761   0.34815   0.34962   0.35930
     Eigenvalues ---    0.36236   0.38779   0.40860   0.42824   0.43276
     Eigenvalues ---    0.43690   0.45839   0.46192   0.48064   0.49352
     Eigenvalues ---    0.50294   0.50857   0.51998   0.60547   0.84878
     Eigenvalues ---    0.91936
 RFO step:  Lambda=-4.03553068D-03 EMin= 2.54058634D-03
 Linear search not attempted -- first point.
 Iteration  1 RMS(Cart)=  0.03884227 RMS(Int)=  0.00036912
 Iteration  2 RMS(Cart)=  0.00061307 RMS(Int)=  0.00001132
 Iteration  3 RMS(Cart)=  0.00000007 RMS(Int)=  0.00001132
 Variable       Old X    -DE/DX   Delta X   Delta X   Delta X     New X
                                 (Linear)    (Quad)   (Total)
    R1        2.63065  -0.00459   0.00000  -0.00945  -0.00945   2.62120
    R2        2.80701  -0.00853   0.00000  -0.02572  -0.02572   2.78130
    R3        2.64705  -0.00423   0.00000  -0.00891  -0.00892   2.63813
    R4        2.78687  -0.00873   0.00000  -0.02535  -0.02534   2.76153
    R5        2.35387   0.00727   0.00000   0.00852   0.00852   2.36239
    R6        2.59570  -0.00138   0.00000  -0.00271  -0.00271   2.59299
    R7        1.88570  -0.01128   0.00000  -0.02327  -0.02327   1.86244
    R8        2.32053   0.01006   0.00000   0.01089   0.01089   2.33142
    R9        2.56557  -0.01490   0.00000  -0.02851  -0.02852   2.53704
   R10        2.62930   0.00308   0.00000   0.00553   0.00550   2.63481
   R11        2.80833  -0.00543   0.00000  -0.01584  -0.01584   2.79249
   R12        2.49112   0.01033   0.00000   0.01643   0.01644   2.50756
   R13        2.66154   0.00645   0.00000   0.01434   0.01433   2.67587
   R14        2.68091   0.00154   0.00000   0.00325   0.00325   2.68416
   R15        2.66676   0.00473   0.00000   0.01089   0.01089   2.67766
   R16        2.78851   0.00296   0.00000   0.00958   0.00959   2.79810
   R17        2.59010   0.00392   0.00000   0.00749   0.00748   2.59758
   R18        2.65615   0.00313   0.00000   0.00788   0.00786   2.66401
   R19        2.03714   0.00401   0.00000   0.01095   0.01095   2.04809
   R20        2.58047   0.00565   0.00000   0.01108   0.01108   2.59155
   R21        2.04190   0.00299   0.00000   0.00822   0.00822   2.05013
   R22        2.90772  -0.00521   0.00000  -0.01794  -0.01794   2.88977
   R23        2.06472   0.00124   0.00000   0.00356   0.00356   2.06829
   R24        2.05977   0.00097   0.00000   0.00274   0.00274   2.06251
   R25        2.77760   0.00842   0.00000   0.02442   0.02445   2.80205
   R26        2.81288   0.00667   0.00000   0.01961   0.01961   2.83249
   R27        2.06064   0.00106   0.00000   0.00302   0.00302   2.06367
   R28        2.06106   0.00110   0.00000   0.00312   0.00312   2.06417
   R29        2.06656   0.00053   0.00000   0.00151   0.00151   2.06807
   R30        2.06771   0.00102   0.00000   0.00293   0.00293   2.07064
   R31        2.06916  -0.00060   0.00000  -0.00173  -0.00173   2.06743
    A1        1.85046   0.00206   0.00000   0.00768   0.00768   1.85814
    A2        1.85421   0.00182   0.00000   0.00700   0.00700   1.86121
    A3        1.86756   0.00674   0.00000   0.04111   0.04111   1.90868
    A4        2.14693   0.00135   0.00000   0.00193   0.00188   2.14881
    A5        1.97555   0.00090   0.00000   0.00504   0.00505   1.98060
    A6        2.15835  -0.00225   0.00000  -0.00738  -0.00736   2.15098
    A7        2.10205   0.00442   0.00000   0.01502   0.01501   2.11706
    A8        2.05985   0.00100   0.00000   0.00225   0.00220   2.06205
    A9        2.12714  -0.00497   0.00000  -0.01887  -0.01885   2.10829
   A10        2.09619   0.00398   0.00000   0.01663   0.01665   2.11284
   A11        2.11048  -0.00112   0.00000  -0.00433  -0.00432   2.10616
   A12        2.12144  -0.00186   0.00000  -0.00588  -0.00590   2.11554
   A13        2.05127   0.00298   0.00000   0.01020   0.01021   2.06148
   A14        2.21677   0.00050   0.00000   0.00051   0.00053   2.21730
   A15        1.93116  -0.00259   0.00000  -0.00841  -0.00842   1.92274
   A16        2.13525   0.00208   0.00000   0.00790   0.00789   2.14314
   A17        2.04960  -0.00384   0.00000  -0.01711  -0.01713   2.03247
   A18        2.13611   0.00182   0.00000   0.00793   0.00794   2.14404
   A19        2.09748   0.00202   0.00000   0.00918   0.00918   2.10666
   A20        1.92227  -0.00234   0.00000  -0.00777  -0.00778   1.91449
   A21        2.24644   0.00074   0.00000   0.00093   0.00094   2.24738
   A22        2.11447   0.00160   0.00000   0.00684   0.00683   2.12131
   A23        2.06037  -0.00270   0.00000  -0.00994  -0.00994   2.05043
   A24        2.06227   0.00166   0.00000   0.00685   0.00686   2.06912
   A25        2.16054   0.00104   0.00000   0.00308   0.00309   2.16363
   A26        1.94563  -0.00217   0.00000  -0.00804  -0.00803   1.93760
   A27        1.89524   0.00078   0.00000   0.00294   0.00292   1.89816
   A28        1.83026   0.00146   0.00000   0.01323   0.01323   1.84349
   A29        1.95280   0.00056   0.00000  -0.00049  -0.00050   1.95231
   A30        1.93219   0.00032   0.00000   0.00197   0.00199   1.93419
   A31        1.90318  -0.00088   0.00000  -0.00889  -0.00891   1.89428
   A32        2.11391  -0.00007   0.00000  -0.00224  -0.00226   2.11165
   A33        2.20258   0.00043   0.00000  -0.00029  -0.00031   2.20227
   A34        1.96669  -0.00036   0.00000   0.00253   0.00255   1.96925
   A35        2.16917  -0.00454   0.00000  -0.01610  -0.01607   2.15311
   A36        1.95693  -0.00295   0.00000  -0.01250  -0.01251   1.94442
   A37        2.15708   0.00749   0.00000   0.02859   0.02858   2.18566
   A38        1.86658   0.00105   0.00000   0.00150   0.00151   1.86809
   A39        1.90119  -0.00040   0.00000  -0.00174  -0.00174   1.89945
   A40        1.90088  -0.00038   0.00000  -0.00160  -0.00161   1.89927
   A41        1.91193  -0.00047   0.00000  -0.00231  -0.00231   1.90963
   A42        1.91225  -0.00045   0.00000  -0.00217  -0.00217   1.91008
   A43        1.96818   0.00068   0.00000   0.00610   0.00610   1.97428
   A44        1.90780   0.00091   0.00000   0.00573   0.00571   1.91351
   A45        1.94037   0.00072   0.00000   0.00448   0.00447   1.94485
   A46        1.91680   0.00063   0.00000   0.00358   0.00357   1.92037
   A47        1.90002  -0.00079   0.00000  -0.00434  -0.00435   1.89566
   A48        1.89995  -0.00078   0.00000  -0.00491  -0.00492   1.89503
   A49        1.89840  -0.00074   0.00000  -0.00486  -0.00487   1.89353
   A50        2.13582  -0.00530   0.00000  -0.02087  -0.02087   2.11495
   A51        1.95898   0.00663   0.00000   0.02611   0.02611   1.98508
   A52        2.18839  -0.00133   0.00000  -0.00523  -0.00523   2.18315
    D1       -3.13654   0.00001   0.00000   0.00046   0.00047  -3.13607
    D2        0.00790   0.00000   0.00000   0.00070   0.00070   0.00861
    D3       -0.01235  -0.00002   0.00000  -0.00090  -0.00090  -0.01325
    D4       -2.07727   0.00016   0.00000   0.00192   0.00192  -2.07535
    D5        2.05277  -0.00018   0.00000  -0.00348  -0.00348   2.04929
    D6       -0.00773   0.00000   0.00000  -0.00027  -0.00026  -0.00799
    D7        3.13733   0.00004   0.00000   0.00167   0.00166   3.13899
    D8        0.01227   0.00002   0.00000   0.00073   0.00073   0.01299
    D9        2.07016  -0.00012   0.00000  -0.00172  -0.00172   2.06845
   D10       -2.04542   0.00012   0.00000   0.00294   0.00294  -2.04249
   D11        0.00102   0.00001   0.00000   0.00045   0.00045   0.00146
   D12       -3.14157  -0.00001   0.00000  -0.00039  -0.00039   3.14122
   D13       -0.02133  -0.00024   0.00000  -0.01039  -0.01040  -0.03173
   D14       -3.09153  -0.00001   0.00000  -0.00391  -0.00388  -3.09541
   D15        0.02362   0.00028   0.00000   0.01242   0.01242   0.03604
   D16       -3.12281   0.00031   0.00000   0.01316   0.01316  -3.10965
   D17        3.08634   0.00017   0.00000   0.00581   0.00583   3.09217
   D18       -0.06008   0.00020   0.00000   0.00656   0.00657  -0.05351
   D19        1.62652   0.00029   0.00000   0.02262   0.02262   1.64913
   D20       -2.49754   0.00009   0.00000   0.01868   0.01867  -2.47887
   D21       -0.46506   0.00018   0.00000   0.01652   0.01653  -0.44853
   D22       -1.44314   0.00035   0.00000   0.02871   0.02870  -1.41444
   D23        0.71598   0.00015   0.00000   0.02477   0.02476   0.74074
   D24        2.74847   0.00024   0.00000   0.02260   0.02262   2.77108
   D25        0.00530   0.00004   0.00000   0.00004   0.00006   0.00536
   D26       -3.13509   0.00005   0.00000   0.00141   0.00139  -3.13370
   D27        3.13165  -0.00004   0.00000  -0.00146  -0.00147   3.13018
   D28       -0.01054  -0.00010   0.00000  -0.00452  -0.00450  -0.01504
   D29       -0.00520  -0.00004   0.00000  -0.00210  -0.00211  -0.00731
   D30        3.13580  -0.00010   0.00000  -0.00515  -0.00514   3.13065
   D31       -3.13096   0.00000   0.00000   0.00061   0.00062  -3.13034
   D32        0.01392   0.00006   0.00000   0.00252   0.00252   0.01644
   D33        0.00570   0.00002   0.00000   0.00133   0.00133   0.00704
   D34       -3.13260   0.00008   0.00000   0.00324   0.00324  -3.12936
   D35        0.00162   0.00001   0.00000   0.00081   0.00080   0.00243
   D36       -3.14002  -0.00002   0.00000  -0.00038  -0.00040  -3.14041
   D37       -3.13940   0.00006   0.00000   0.00375   0.00375  -3.13564
   D38        0.00215   0.00004   0.00000   0.00255   0.00255   0.00470
   D39        3.13948   0.00001   0.00000  -0.00023  -0.00023   3.13924
   D40       -0.00344  -0.00004   0.00000  -0.00430  -0.00430  -0.00774
   D41       -0.00269  -0.00004   0.00000  -0.00319  -0.00320  -0.00589
   D42        3.13757  -0.00010   0.00000  -0.00726  -0.00727   3.13031
   D43       -3.14132   0.00003   0.00000   0.00089   0.00088  -3.14044
   D44       -0.00294  -0.00003   0.00000  -0.00098  -0.00098  -0.00392
   D45       -0.00289   0.00002   0.00000   0.00059   0.00060  -0.00230
   D46        3.13549  -0.00003   0.00000  -0.00127  -0.00127   3.13422
   D47       -0.00016  -0.00001   0.00000  -0.00028  -0.00028  -0.00044
   D48        3.13828  -0.00004   0.00000  -0.00206  -0.00206   3.13622
   D49       -3.13905   0.00000   0.00000  -0.00004  -0.00005  -3.13910
   D50       -0.00062  -0.00004   0.00000  -0.00182  -0.00182  -0.00244
   D51        3.13908  -0.00003   0.00000  -0.00108  -0.00110   3.13798
   D52       -0.00247   0.00000   0.00000   0.00019   0.00018  -0.00229
   D53        0.00129   0.00002   0.00000   0.00107   0.00106   0.00234
   D54       -3.14026   0.00005   0.00000   0.00234   0.00233  -3.13793
   D55       -1.03480  -0.00031   0.00000  -0.00710  -0.00710  -1.04189
   D56        1.06318  -0.00025   0.00000  -0.00593  -0.00593   1.05726
   D57       -3.11813  -0.00029   0.00000  -0.00676  -0.00675  -3.12488
   D58        3.12225  -0.00016   0.00000  -0.00478  -0.00478   3.11747
   D59       -1.06296  -0.00009   0.00000  -0.00361  -0.00361  -1.06657
   D60        1.03891  -0.00014   0.00000  -0.00443  -0.00444   1.03448
   D61        0.99545   0.00036   0.00000   0.00557   0.00557   1.00102
   D62        3.09344   0.00043   0.00000   0.00674   0.00674   3.10017
   D63       -1.08788   0.00038   0.00000   0.00591   0.00591  -1.08197
   D64       -3.13652   0.00005   0.00000   0.00257   0.00256  -3.13396
   D65        0.00373   0.00003   0.00000   0.00101   0.00101   0.00474
   D66        0.00648   0.00011   0.00000   0.00689   0.00688   0.01336
   D67       -3.13645   0.00008   0.00000   0.00533   0.00533  -3.13112
   D68       -3.13767   0.00002   0.00000   0.00136   0.00136  -3.13631
   D69        0.00290   0.00000   0.00000   0.00048   0.00047   0.00337
   D70        0.00512   0.00004   0.00000   0.00275   0.00276   0.00788
   D71       -3.13751   0.00003   0.00000   0.00187   0.00187  -3.13563
         Item               Value     Threshold  Converged?
 Maximum Force            0.014901     0.000450     NO 
 RMS     Force            0.003130     0.000300     NO 
 Maximum Displacement     0.185979     0.001800     NO 
 RMS     Displacement     0.038863     0.001200     NO 
 Predicted change in Energy=-2.051257D-03
 GradGradGradGradGradGradGradGradGradGradGradGradGradGradGradGradGradGrad

                          Input orientation:                          
 ---------------------------------------------------------------------
 Center     Atomic      Atomic             Coordinates (Angstroms)
 Number     Number       Type             X           Y           Z
 ---------------------------------------------------------------------
      1          8           0        4.060512    0.664849   -0.126100
      2          8           0        3.795371   -1.661868    0.152961
      3          8           0       -1.319645   -2.596326    0.198150
      4          8           0       -4.007305   -1.993590    0.139592
      5          8           0       -4.622298    0.173499   -0.148822
      6          7           0       -0.784536    1.426952   -0.317263
      7          7           0       -2.032381    0.937016   -0.244631
      8          6           0        0.354309    0.632958   -0.188344
      9          6           0        0.180229   -0.761597   -0.015163
     10          6           0        2.711484    0.342491   -0.112222
     11          6           0        1.651704    1.209257   -0.234935
     12          6           0        2.545660   -1.047470    0.054694
     13          6           0        1.300717   -1.620213    0.107508
     14          6           0       -0.736150    2.898624   -0.441772
     15          6           0       -1.170810   -1.364252    0.047639
     16          6           0       -2.254916   -0.360448   -0.077763
     17          6           0        4.793656   -0.601709    0.030509
     18          6           0       -0.570690    3.559683    0.927200
     19          6           0       -3.722383   -0.663178   -0.038229
     20          1           0        1.818231    2.273417   -0.355174
     21          1           0        1.127592   -2.683230    0.237856
     22          1           0        0.075583    3.167513   -1.124925
     23          1           0       -1.684347    3.186240   -0.899405
     24          1           0        5.387201   -0.554544    0.945956
     25          1           0        5.397326   -0.772329   -0.863705
     26          1           0       -1.412172    3.286797    1.571479
     27          1           0        0.359054    3.244821    1.414098
     28          1           0       -0.553891    4.648140    0.818129
     29          1           0       -4.984712   -2.119016    0.156075
 ---------------------------------------------------------------------
                    Distance matrix (angstroms):
                    1          2          3          4          5
     1  O    0.000000
     2  O    2.358345   0.000000
     3  O    6.299722   5.199869   0.000000
     4  O    8.498680   7.809735   2.755038   0.000000
     5  O    8.696731   8.620719   4.324331   2.271051   0.000000
     6  N    4.908344   5.544138   4.091303   4.721765   4.040783
     7  N    6.100120   6.393353   3.631605   3.554772   2.701816
     8  C    3.706863   4.150136   3.657838   5.101957   4.997927
     9  C    4.135656   3.729343   2.379361   4.367745   4.894542
    10  C    1.387078   2.294034   4.998297   7.117781   7.335820
    11  C    2.471959   3.604044   4.847571   6.513285   6.359506
    12  C    2.293360   1.396037   4.166547   6.621457   7.274050
    13  C    3.590620   2.495416   2.797733   5.321234   6.193966
    14  C    5.300695   6.456507   5.562774   5.913730   4.755447
    15  C    5.613748   4.976206   1.250125   2.906927   3.783655
    16  C    6.398296   6.192972   2.439265   2.405258   2.427890
    17  C    1.471800   1.461336   6.432655   8.911012   9.449513
    18  C    5.562152   6.850294   6.244109   6.577955   5.388840
    19  C    7.895874   7.586208   3.092909   1.372151   1.233737
    20  H    2.769077   4.433255   5.819522   7.238026   6.777364
    21  H    4.465883   2.857872   2.449102   5.181933   6.432080
    22  H    4.810471   6.228381   6.076103   6.701191   5.655704
    23  H    6.321298   7.391815   5.897093   5.771161   4.274523
    24  H    2.096743   2.094978   7.050523   9.538230  10.095478
    25  H    2.096811   2.095506   7.040753   9.536517  10.089525
    26  H    6.301321   7.322567   6.041997   6.055369   4.791343
    27  H    4.767521   6.121629   6.198029   6.937608   6.057195
    28  H    6.168540   7.692511   7.311159   7.516585   6.124487
    29  H    9.468136   8.791976   3.696256   0.985560   2.340925
                    6          7          8          9         10
     6  N    0.000000
     7  N    1.342545   0.000000
     8  C    1.394279   2.406638   0.000000
     9  C    2.410764   2.798854   1.416008   0.000000
    10  C    3.666095   4.782807   2.376224   2.763273   0.000000
    11  C    2.447333   3.694143   1.420397   2.469373   1.374582
    12  C    4.165492   4.998623   2.772170   2.383666   1.409735
    13  C    3.716709   4.215799   2.461706   1.416955   2.427087
    14  C    1.477723   2.359446   2.527166   3.797232   4.304486
    15  C    2.841334   2.474583   2.523990   1.480691   4.243906
    16  C    2.326837   1.326943   2.794125   2.468759   5.016018
    17  C    5.945808   7.002724   4.613036   4.616422   2.290704
    18  C    2.478500   3.223059   3.265851   4.486133   4.712047
    19  C    3.616275   2.336521   4.280411   3.903921   6.512410
    20  H    2.737214   4.077426   2.204996   3.465540   2.141355
    21  H    4.567054   4.829534   3.431722   2.157356   3.433111
    22  H    2.102778   3.192733   2.716402   4.084168   3.994282
    23  H    2.060011   2.368305   3.343796   4.454654   5.294326
    24  H    6.603968   7.661100   5.294035   5.298979   3.013947
    25  H    6.584137   7.648899   5.278538   5.285663   3.003548
    26  H    2.724022   3.033873   3.641468   4.630623   5.339318
    27  H    2.758634   3.714338   3.064257   4.257482   4.035727
    28  H    3.423210   4.133743   4.237865   5.522550   5.483324
    29  H    5.517192   4.268039   6.016405   5.343082   8.084703
                   11         12         13         14         15
    11  C    0.000000
    12  C    2.444557   0.000000
    13  C    2.871648   1.371389   0.000000
    14  C    2.932336   5.156396   4.987026   0.000000
    15  C    3.830063   3.729953   2.485467   4.312837   0.000000
    16  C    4.213117   4.851296   3.776752   3.613959   1.482779
    17  C    3.636195   2.291893   3.639217   6.561565   6.013037
    18  C    3.437164   5.630165   5.568248   1.529203   5.037748
    19  C    5.694341   6.280499   5.115534   4.665498   2.647527
    20  H    1.083801   3.424243   3.955029   2.631207   4.725385
    21  H    3.955968   2.172596   1.084881   5.923894   2.656791
    22  H    2.666647   5.025819   5.093345   1.094490   4.844099
    23  H    3.934364   6.060327   5.746866   1.091434   4.676279
    24  H    4.296445   3.018557   4.305578   7.165584   6.668592
    25  H    4.283890   3.008514   4.294691   7.160548   6.657427
    26  H    4.119058   6.062255   5.794974   2.158903   4.900265
    27  H    2.921262   5.005296   5.124691   2.182563   5.044923
    28  H    4.218946   6.529167   6.575469   2.163648   6.092872
    29  H    7.434535   7.606904   6.305377   6.601849   3.889380
                   16         17         18         19         20
    16  C    0.000000
    17  C    7.053530   0.000000
    18  C    4.383377   6.848171   0.000000
    19  C    1.498889   8.516538   5.357031   0.000000
    20  H    4.858470   4.155509   3.000985   6.278730   0.000000
    21  H    4.115373   4.220870   6.506406   5.261092   5.039545
    22  H    4.355947   6.148355   2.186935   5.502695   2.104459
    23  H    3.685056   7.561601   2.171676   4.439959   3.660258
    24  H    7.712822   1.092046   7.240421   9.163239   4.735806
    25  H    7.703515   1.092313   7.588866   9.157642   4.727060
    26  H    4.090551   7.483807   1.094374   4.850828   3.895438
    27  H    4.696429   6.031235   1.095734   5.834367   2.490612
    28  H    5.364891   7.535086   1.094037   6.243620   3.555687
    29  H    3.255615   9.896184   7.233661   1.936670   8.113870
                   21         22         23         24         25
    21  H    0.000000
    22  H    6.098777   0.000000
    23  H    6.606893   1.774419   0.000000
    24  H    4.814247   6.808491   8.210093   0.000000
    25  H    4.805788   6.626578   8.113053   1.822747   0.000000
    26  H    6.623456   3.081921   2.487862   7.834453   8.293123
    27  H    6.092288   2.555968   3.087267   6.319541   6.834476
    28  H    7.544076   2.522688   2.522896   7.898155   8.223566
    29  H    6.138834   7.429329   6.336576  10.518939  10.518566
                   26         27         28         29
    26  H    0.000000
    27  H    1.778700   0.000000
    28  H    1.776918   1.777063   0.000000
    29  H    6.632437   7.675233   8.115718   0.000000
 Stoichiometry    C12H10N2O5
 Framework group  C1[X(C12H10N2O5)]
 Deg. of freedom    81
 Full point group                 C1      NOp   1
 Largest Abelian subgroup         C1      NOp   1
 Largest concise Abelian subgroup C1      NOp   1
                         Standard orientation:                         
 ---------------------------------------------------------------------
 Center     Atomic      Atomic             Coordinates (Angstroms)
 Number     Number       Type             X           Y           Z
 ---------------------------------------------------------------------
      1          8           0        4.068028    0.635001   -0.131626
      2          8           0        3.787226   -1.690252    0.144306
      3          8           0       -1.334055   -2.589397    0.195855
      4          8           0       -4.017568   -1.968008    0.142298
      5          8           0       -4.617996    0.203719   -0.141892
      6          7           0       -0.771917    1.430869   -0.314266
      7          7           0       -2.023009    0.949460   -0.240480
      8          6           0        0.361603    0.628826   -0.188284
      9          6           0        0.178147   -0.764756   -0.016954
     10          6           0        2.716826    0.321955   -0.116186
     11          6           0        1.662881    1.196213   -0.235972
     12          6           0        2.541646   -1.067080    0.048872
     13          6           0        1.292854   -1.631283    0.102710
     14          6           0       -0.713544    2.902360   -0.436615
     15          6           0       -1.176932   -1.358152    0.046987
     16          6           0       -2.254258   -0.346688   -0.075243
     17          6           0        4.792632   -0.636833    0.021946
     18          6           0       -0.541449    3.560167    0.933106
     19          6           0       -3.723722   -0.639327   -0.033937
     20          1           0        1.836581    2.259379   -0.354849
     21          1           0        1.112580   -2.693276    0.231708
     22          1           0        0.098997    3.166674   -1.120592
     23          1           0       -1.660419    3.197223   -0.892368
     24          1           0        5.387871   -0.595171    0.936560
     25          1           0        5.393757   -0.810255   -0.873443
     26          1           0       -1.383824    3.292120    1.578249
     27          1           0        0.386830    3.238141    1.418112
     28          1           0       -0.517289    4.648647    0.825661
     29          1           0       -4.995793   -2.086699    0.160077
 ---------------------------------------------------------------------
 Rotational constants (GHZ):      0.6886355      0.2454618      0.1845835
 Standard basis: LANL2DZ (5D, 7F)
 There are   191 symmetry adapted cartesian basis functions of A   symmetry.
 There are   191 symmetry adapted basis functions of A   symmetry.
   191 basis functions,   515 primitive gaussians,   191 cartesian basis functions
    68 alpha electrons       68 beta electrons
       nuclear repulsion energy      1407.8633300341 Hartrees.
[...]
                 (A) (A) (A) (A) (A) (A) (A) (A) (A) (A) (A) (A)
                 (A) (A) (A) (A) (A) (A) (A) (A) (A) (A) (A) (A)
                 (A) (A) (A) (A) (A) (A) (A) (A)
       Virtual   (A) (A) (A) (A) (A) (A) (A) (A) (A) (A) (A) (A)
                 (A) (A) (A) (A) (A) (A) (A) (A) (A) (A) (A) (A)
                 (A) (A) (A) (A) (A) (A) (A) (A) (A) (A) (A) (A)
                 (A) (A) (A) (A) (A) (A) (A) (A) (A) (A) (A) (A)
                 (A) (A) (A) (A) (A) (A) (A) (A) (A) (A) (A) (A)
                 (A) (A) (A) (A) (A) (A) (A) (A) (A) (A) (A) (A)
                 (A) (A) (A) (A) (A) (A) (A) (A) (A) (A) (A) (A)
                 (A) (A) (A) (A) (A) (A) (A) (A) (A) (A) (A) (A)
                 (A) (A) (A) (A) (A) (A) (A) (A) (A) (A) (A) (A)
                 (A) (A) (A) (A) (A) (A) (A) (A) (A) (A) (A) (A)
                 (A) (A) (A)
 The electronic state is 1-A.
 Alpha  occ. eigenvalues --  -19.30062 -19.29340 -19.27038 -19.23008 -19.20541
 Alpha  occ. eigenvalues --  -14.51313 -14.48926 -10.41347 -10.40095 -10.36520
 Alpha  occ. eigenvalues --  -10.35575 -10.35372 -10.34986 -10.32002 -10.31710
 Alpha  occ. eigenvalues --  -10.29910 -10.29579 -10.29043 -10.26166  -1.18462
 Alpha  occ. eigenvalues --   -1.14396  -1.09988  -1.09339  -1.05804  -1.05506
 Alpha  occ. eigenvalues --   -0.93017  -0.90300  -0.83309  -0.81020  -0.79528
 Alpha  occ. eigenvalues --   -0.75075  -0.72544  -0.69393  -0.68228  -0.65872
 Alpha  occ. eigenvalues --   -0.63847  -0.62028  -0.58068  -0.56914  -0.55827
 Alpha  occ. eigenvalues --   -0.54362  -0.52734  -0.50695  -0.50149  -0.49752
 Alpha  occ. eigenvalues --   -0.48716  -0.47816  -0.47288  -0.46212  -0.45179
 Alpha  occ. eigenvalues --   -0.44683  -0.43035  -0.42707  -0.41538  -0.41231
 Alpha  occ. eigenvalues --   -0.40523  -0.40368  -0.39196  -0.39165  -0.38952
 Alpha  occ. eigenvalues --   -0.36585  -0.33988  -0.32942  -0.30245  -0.29718
 Alpha  occ. eigenvalues --   -0.27707  -0.25891  -0.24154
 Alpha virt. eigenvalues --   -0.07819  -0.05128  -0.01409   0.00374   0.05711
 Alpha virt. eigenvalues --    0.07172   0.08378   0.09203   0.09422   0.11583
 Alpha virt. eigenvalues --    0.12140   0.12506   0.12798   0.14010   0.15151
 Alpha virt. eigenvalues --    0.16337   0.16550   0.18485   0.19473   0.19583
 Alpha virt. eigenvalues --    0.20213   0.20360   0.20773   0.21014   0.22694
 Alpha virt. eigenvalues --    0.24006   0.24409   0.25159   0.25681   0.26403
 Alpha virt. eigenvalues --    0.27364   0.27797   0.28298   0.28412   0.29806
 Alpha virt. eigenvalues --    0.30345   0.30886   0.31300   0.32306   0.32505
 Alpha virt. eigenvalues --    0.33500   0.34705   0.35664   0.36279   0.36976
 Alpha virt. eigenvalues --    0.37658   0.37922   0.38310   0.39512   0.40499
 Alpha virt. eigenvalues --    0.41174   0.42378   0.43008   0.44382   0.46504
 Alpha virt. eigenvalues --    0.46891   0.47255   0.47863   0.48075   0.49297
 Alpha virt. eigenvalues --    0.51310   0.52137   0.52800   0.54080   0.55484
 Alpha virt. eigenvalues --    0.56638   0.59198   0.62348   0.62846   0.64443
 Alpha virt. eigenvalues --    0.65107   0.66482   0.66953   0.68595   0.69563
 Alpha virt. eigenvalues --    0.70170   0.71234   0.73472   0.74799   0.76715
 Alpha virt. eigenvalues --    0.79089   0.81816   0.83411   0.84776   0.86330
 Alpha virt. eigenvalues --    0.87343   0.87708   0.88407   0.89442   0.90314
 Alpha virt. eigenvalues --    0.93470   0.95916   0.97203   0.98688   1.03392
 Alpha virt. eigenvalues --    1.04989   1.05903   1.07507   1.07860   1.07974
 Alpha virt. eigenvalues --    1.08408   1.12136   1.14571   1.15281   1.15861
 Alpha virt. eigenvalues --    1.18279   1.23395   1.25202   1.26896   1.32226
 Alpha virt. eigenvalues --    1.33795   1.43077   1.46410   1.48556   1.52297
 Alpha virt. eigenvalues --    1.58375   1.70631   1.78167   1.82043   1.92055
 Alpha virt. eigenvalues --    1.96768   2.03085   2.04969
          Condensed to atoms (all electrons):
               1          2          3          4          5          6
     1  O    8.025863  -0.046377   0.000000   0.000000   0.000000   0.000041
     2  O   -0.046377   8.023918   0.000002   0.000000   0.000000   0.000000
     3  O    0.000000   0.000002   7.795590  -0.005430  -0.000067   0.000975
     4  O    0.000000   0.000000  -0.005430   8.102679  -0.081042  -0.000297
     5  O    0.000000   0.000000  -0.000067  -0.081042   7.794978  -0.000558
     6  N    0.000041   0.000000   0.000975  -0.000297  -0.000558   7.036182
     7  N    0.000001   0.000000   0.004159  -0.005715  -0.005312   0.187501
     8  C   -0.001133  -0.000034  -0.009794  -0.000049  -0.000386   0.108972
     9  C    0.000004  -0.001679  -0.109297  -0.000070   0.000251   0.021987
    10  C    0.260147  -0.030915   0.000087   0.000000   0.000000  -0.009546
    11  C   -0.046768   0.002937  -0.000378  -0.000002  -0.000007  -0.043225
    12  C   -0.035102   0.241681   0.001648   0.000001   0.000000   0.000060
    13  C    0.001723  -0.046757   0.025027   0.000130   0.000020   0.007481
    14  C   -0.000012  -0.000002   0.000020   0.000007   0.000144   0.248246
    15  C    0.000017   0.000159   0.641378   0.014385   0.002405  -0.054233
    16  C   -0.000005  -0.000005  -0.073031  -0.060200  -0.029043  -0.111162
    17  C    0.258072   0.271123  -0.000001   0.000000   0.000000  -0.000009
    18  C    0.000001   0.000000  -0.000001   0.000001  -0.000004  -0.070726
    19  C    0.000000   0.000000   0.009829   0.241250   0.591979   0.017627
    20  H   -0.001163  -0.000137   0.000000   0.000000   0.000000  -0.005086
    21  H   -0.000120  -0.000339   0.008122   0.000001   0.000000  -0.000087
    22  H   -0.000002   0.000000   0.000000   0.000000   0.000000  -0.034830
    23  H    0.000000   0.000000   0.000000   0.000000  -0.000004  -0.036993
    24  H   -0.040945  -0.042515   0.000000   0.000000   0.000000   0.000000
    25  H   -0.044498  -0.045549   0.000000   0.000000   0.000000   0.000000
    26  H    0.000000   0.000000   0.000000   0.000000   0.000000  -0.002449
    27  H    0.000000   0.000000   0.000000   0.000000   0.000000  -0.003318
    28  H    0.000000   0.000000   0.000000   0.000000   0.000000   0.004292
    29  H    0.000000   0.000000  -0.000071   0.254091   0.001523   0.000009
               7          8          9         10         11         12
     1  O    0.000001  -0.001133   0.000004   0.260147  -0.046768  -0.035102
     2  O    0.000000  -0.000034  -0.001679  -0.030915   0.002937   0.241681
     3  O    0.004159  -0.009794  -0.109297   0.000087  -0.000378   0.001648
     4  O   -0.005715  -0.000049  -0.000070   0.000000  -0.000002   0.000001
     5  O   -0.005312  -0.000386   0.000251   0.000000  -0.000007   0.000000
     6  N    0.187501   0.108972   0.021987  -0.009546  -0.043225   0.000060
     7  N    6.441436  -0.083297   0.005786   0.000102   0.015955  -0.000122
     8  C   -0.083297   5.414388   0.165550  -0.051579   0.365933  -0.058070
     9  C    0.005786   0.165550   5.560198  -0.082761  -0.119220  -0.047458
    10  C    0.000102  -0.051579  -0.082761   5.070430   0.442614   0.366861
    11  C    0.015955   0.365933  -0.119220   0.442614   5.670297  -0.112921
    12  C   -0.000122  -0.058070  -0.047458   0.366861  -0.112921   5.103576
    13  C   -0.000943  -0.116477   0.468883  -0.099954  -0.063951   0.444304
    14  C   -0.070322  -0.158332   0.008258   0.001010   0.036034  -0.000019
    15  C    0.012614   0.052654   0.080524  -0.000812   0.004639  -0.016800
    16  C    0.497702  -0.048731  -0.134345  -0.001269  -0.011309  -0.000594
    17  C   -0.000001  -0.000369  -0.000393  -0.096312   0.008622  -0.105065
    18  C   -0.001563  -0.011738  -0.001464   0.000933   0.002697   0.000074
    19  C   -0.029857  -0.011726  -0.007410  -0.000024  -0.000412   0.000021
    20  H   -0.000051  -0.024470  -0.002960  -0.001426   0.296231   0.001749
    21  H   -0.000060   0.003081  -0.010645  -0.001837   0.000476  -0.027540
    22  H    0.002621  -0.004785  -0.002788   0.003319   0.012597   0.000104
    23  H    0.007205   0.004474   0.000181  -0.000017  -0.000347  -0.000003
    24  H    0.000000  -0.000017  -0.000016   0.001002  -0.000208   0.002298
    25  H    0.000000  -0.000019  -0.000020   0.003040   0.000224   0.002877
    26  H    0.003116   0.000851  -0.000120   0.000015  -0.000066   0.000000
    27  H    0.000088   0.001828   0.000120   0.000368   0.003783  -0.000010
    28  H   -0.000067   0.000316   0.000023  -0.000020  -0.000493   0.000000
    29  H    0.000178   0.000001  -0.000009   0.000000   0.000000   0.000000
              13         14         15         16         17         18
     1  O    0.001723  -0.000012   0.000017  -0.000005   0.258072   0.000001
     2  O   -0.046757  -0.000002   0.000159  -0.000005   0.271123   0.000000
     3  O    0.025027   0.000020   0.641378  -0.073031  -0.000001  -0.000001
     4  O    0.000130   0.000007   0.014385  -0.060200   0.000000   0.000001
     5  O    0.000020   0.000144   0.002405  -0.029043   0.000000  -0.000004
     6  N    0.007481   0.248246  -0.054233  -0.111162  -0.000009  -0.070726
     7  N   -0.000943  -0.070322   0.012614   0.497702  -0.000001  -0.001563
     8  C   -0.116477  -0.158332   0.052654  -0.048731  -0.000369  -0.011738
     9  C    0.468883   0.008258   0.080524  -0.134345  -0.000393  -0.001464
    10  C   -0.099954   0.001010  -0.000812  -0.001269  -0.096312   0.000933
    11  C   -0.063951   0.036034   0.004639  -0.011309   0.008622   0.002697
    12  C    0.444304  -0.000019  -0.016800  -0.000594  -0.105065   0.000074
    13  C    5.627966  -0.000311  -0.049997  -0.017621   0.005982   0.000058
    14  C   -0.000311   5.382021  -0.001561   0.000298  -0.000005   0.281486
    15  C   -0.049997  -0.001561   5.372329  -0.107189  -0.000057  -0.000016
    16  C   -0.017621   0.000298  -0.107189   6.191131  -0.000004   0.000002
    17  C    0.005982  -0.000005  -0.000057  -0.000004   5.140365   0.000002
    18  C    0.000058   0.281486  -0.000016   0.000002   0.000002   5.397574
    19  C    0.000430   0.000679  -0.095432   0.020316   0.000000  -0.000049
    20  H    0.000960   0.008088  -0.000013   0.000053  -0.000323  -0.004740
    21  H    0.312139   0.000003  -0.002698   0.001236  -0.000301   0.000000
    22  H   -0.000052   0.337666   0.000032   0.000096   0.000001  -0.043179
    23  H    0.000018   0.365588  -0.000046   0.000813   0.000000  -0.034343
    24  H    0.000025   0.000000   0.000000   0.000000   0.338762   0.000000
    25  H    0.000221   0.000000   0.000000   0.000000   0.334709   0.000000
    26  H    0.000000  -0.037125   0.000042   0.000116   0.000000   0.375453
    27  H    0.000017  -0.037328  -0.000003  -0.000011   0.000000   0.370773
    28  H    0.000000  -0.027296  -0.000002  -0.000014   0.000000   0.369621
    29  H   -0.000002   0.000000  -0.000631   0.005532   0.000000   0.000000
              19         20         21         22         23         24
     1  O    0.000000  -0.001163  -0.000120  -0.000002   0.000000  -0.040945
     2  O    0.000000  -0.000137  -0.000339   0.000000   0.000000  -0.042515
     3  O    0.009829   0.000000   0.008122   0.000000   0.000000   0.000000
     4  O    0.241250   0.000000   0.000001   0.000000   0.000000   0.000000
     5  O    0.591979   0.000000   0.000000   0.000000  -0.000004   0.000000
     6  N    0.017627  -0.005086  -0.000087  -0.034830  -0.036993   0.000000
     7  N   -0.029857  -0.000051  -0.000060   0.002621   0.007205   0.000000
     8  C   -0.011726  -0.024470   0.003081  -0.004785   0.004474  -0.000017
     9  C   -0.007410  -0.002960  -0.010645  -0.002788   0.000181  -0.000016
    10  C   -0.000024  -0.001426  -0.001837   0.003319  -0.000017   0.001002
    11  C   -0.000412   0.296231   0.000476   0.012597  -0.000347  -0.000208
    12  C    0.000021   0.001749  -0.027540   0.000104  -0.000003   0.002298
    13  C    0.000430   0.000960   0.312139  -0.000052   0.000018   0.000025
    14  C    0.000679   0.008088   0.000003   0.337666   0.365588   0.000000
    15  C   -0.095432  -0.000013  -0.002698   0.000032  -0.000046   0.000000
    16  C    0.020316   0.000053   0.001236   0.000096   0.000813   0.000000
    17  C    0.000000  -0.000323  -0.000301   0.000001   0.000000   0.338762
    18  C   -0.000049  -0.004740   0.000000  -0.043179  -0.034343   0.000000
    19  C    5.066435   0.000000  -0.000016   0.000004  -0.000139   0.000000
    20  H    0.000000   0.471319   0.000008   0.002888   0.000129   0.000001
    21  H   -0.000016   0.000008   0.422944   0.000000   0.000000   0.000002
    22  H    0.000004   0.002888   0.000000   0.540172  -0.025006   0.000000
    23  H   -0.000139   0.000129   0.000000  -0.025006   0.456125   0.000000
    24  H    0.000000   0.000001   0.000002   0.000000   0.000000   0.546189
    25  H    0.000000   0.000004   0.000003   0.000000   0.000000  -0.051514
    26  H    0.000010   0.000059   0.000000   0.003359  -0.003538   0.000000
    27  H    0.000000   0.000053   0.000000  -0.004200   0.002863   0.000000
    28  H   -0.000001   0.000110   0.000000  -0.001147  -0.001185   0.000000
    29  H   -0.029507   0.000000   0.000000   0.000000   0.000000   0.000000
              25         26         27         28         29
     1  O   -0.044498   0.000000   0.000000   0.000000   0.000000
     2  O   -0.045549   0.000000   0.000000   0.000000   0.000000
     3  O    0.000000   0.000000   0.000000   0.000000  -0.000071
     4  O    0.000000   0.000000   0.000000   0.000000   0.254091
     5  O    0.000000   0.000000   0.000000   0.000000   0.001523
     6  N    0.000000  -0.002449  -0.003318   0.004292   0.000009
     7  N    0.000000   0.003116   0.000088  -0.000067   0.000178
     8  C   -0.000019   0.000851   0.001828   0.000316   0.000001
     9  C   -0.000020  -0.000120   0.000120   0.000023  -0.000009
    10  C    0.003040   0.000015   0.000368  -0.000020   0.000000
    11  C    0.000224  -0.000066   0.003783  -0.000493   0.000000
    12  C    0.002877   0.000000  -0.000010   0.000000   0.000000
    13  C    0.000221   0.000000   0.000017   0.000000  -0.000002
    14  C    0.000000  -0.037125  -0.037328  -0.027296   0.000000
    15  C    0.000000   0.000042  -0.000003  -0.000002  -0.000631
    16  C    0.000000   0.000116  -0.000011  -0.000014   0.005532
    17  C    0.334709   0.000000   0.000000   0.000000   0.000000
    18  C    0.000000   0.375453   0.370773   0.369621   0.000000
    19  C    0.000000   0.000010   0.000000  -0.000001  -0.029507
    20  H    0.000004   0.000059   0.000053   0.000110   0.000000
    21  H    0.000003   0.000000   0.000000   0.000000   0.000000
    22  H    0.000000   0.003359  -0.004200  -0.001147   0.000000
    23  H    0.000000  -0.003538   0.002863  -0.001185   0.000000
    24  H   -0.051514   0.000000   0.000000   0.000000   0.000000
    25  H    0.554353   0.000000   0.000000   0.000000   0.000000
    26  H    0.000000   0.463582  -0.022012  -0.018348   0.000000
    27  H    0.000000  -0.022012   0.488783  -0.020248   0.000000
    28  H    0.000000  -0.018348  -0.020248   0.471277   0.000000
    29  H    0.000000   0.000000   0.000000   0.000000   0.354182
 Mulliken charges:
               1
     1  O   -0.329745
     2  O   -0.325509
     3  O   -0.288771
     4  O   -0.459738
     5  O   -0.274877
     6  N   -0.260852
     7  N    0.018845
     8  C    0.462956
     9  C    0.208891
    10  C    0.226546
    11  C   -0.463733
    12  C    0.238450
    13  C   -0.499318
    14  C   -0.337233
    15  C    0.148311
    16  C   -0.122760
    17  C   -0.154799
    18  C   -0.630852
    19  C    0.225990
    20  H    0.258718
    21  H    0.295630
    22  H    0.213130
    23  H    0.264225
    24  H    0.246936
    25  H    0.246169
    26  H    0.237053
    27  H    0.218454
    28  H    0.223182
    29  H    0.414703
 Sum of Mulliken charges =   0.00000
 Mulliken charges with hydrogens summed into heavy atoms:
               1
     1  O   -0.329745
     2  O   -0.325509
     3  O   -0.288771
     4  O   -0.045035
     5  O   -0.274877
     6  N   -0.260852
     7  N    0.018845
     8  C    0.462956
     9  C    0.208891
    10  C    0.226546
    11  C   -0.205015
    12  C    0.238450
    13  C   -0.203687
    14  C    0.140122
    15  C    0.148311
    16  C   -0.122760
    17  C    0.338306
    18  C    0.047837
    19  C    0.225990
 Electronic spatial extent (au):  <R**2>=           5461.0107
 Charge=              0.0000 electrons
 Dipole moment (field-independent basis, Debye):
    X=              5.3902    Y=              4.5652    Z=              1.0899  Tot=              7.1472
 Quadrupole moment (field-independent basis, Debye-Ang):
   XX=           -100.7562   YY=           -107.2588   ZZ=           -109.5953
   XY=             -1.2893   XZ=             -9.1113   YZ=             -0.4922
 Traceless Quadrupole moment (field-independent basis, Debye-Ang):
   XX=              5.1139   YY=             -1.3887   ZZ=             -3.7252
   XY=             -1.2893   XZ=             -9.1113   YZ=             -0.4922
 Octapole moment (field-independent basis, Debye-Ang**2):
  XXX=            100.8358  YYY=             65.7800  ZZZ=              2.3530  XYY=            -17.4587
  XXY=            -57.3059  XXZ=             53.2373  XZZ=              8.2406  YZZ=             -0.4299
  YYZ=             -1.2779  XYZ=              5.7746
 Hexadecapole moment (field-independent basis, Debye-Ang**3):
 XXXX=          -4067.6401 YYYY=          -1779.5490 ZZZZ=           -251.0478 XXXY=            132.4223
 XXXZ=           -286.4985 YYYX=              2.3770 YYYZ=            -19.5117 ZZZX=             -7.6449
 ZZZY=             -5.3364 XXYY=          -1110.0222 XXZZ=           -834.8127 YYZZ=           -345.8990
 XXYZ=            -32.8137 YYXZ=            -16.2840 ZZXY=              0.8470
 N-N= 1.409120715547D+03 E-N=-5.034240679445D+03  KE= 9.437353686680D+02
 1\1\GINC-NODE043\FOpt\RM06\LANL2DZ\C12H10N2O5\SUPERCOMPUTO1\12-Aug-202
 0\0\\#opt M06/lanl2dz integral=ultrafine geom=connectivity\\Title Card
  Required\\0,1\O,4.051568355,0.6541762032,-0.0166862194\O,3.7812771455
 ,-1.6744021688,0.1372570657\O,-1.3801275188,-2.5898275064,-0.159459092
 4\O,-3.9467813906,-1.5534005627,0.8954609681\O,-4.5377461311,-0.377860
 6425,-0.9748773274\N,-0.784760467,1.4429133646,-0.3473182739\N,-2.0384
 926027,0.9549250009,-0.3136083158\C,0.3502741624,0.6376814068,-0.21187
 85013\C,0.1754449897,-0.76650982,-0.1149123158\C,2.7034440951,0.337780
 2319,-0.0705510081\C,1.6500748589,1.2130925095,-0.1859868109\C,2.53407
 40344,-1.0608343057,0.0209113166\C,1.2900323962,-1.6347035777,0.001518
 1727\C,-0.7238875857,2.915738998,-0.4170556667\C,-1.1710598192,-1.3531
 389214,-0.143927436\C,-2.2390045376,-0.3447438658,-0.1955871653\C,4.78
 06975111,-0.6162043852,0.0665992589\C,-0.6164382386,3.5392002226,0.974
 568907\C,-3.6769550709,-0.7433931759,-0.1730870049\H,1.8226065457,2.28
 0090012,-0.2474619705\H,1.1141153987,-2.7028152055,0.0665082402\H,0.11
 0952636,3.2059945495,-1.0630512989\H,-1.649532412,3.2248798207,-0.9066
 24526\H,5.3840730523,-0.6214282631,0.9769655725\H,5.3838892907,-0.7401
 797333,-0.8370726144\H,-1.4837963352,3.2514173378,1.5775222466\H,0.289
 0081004,3.2112864931,1.4975934426\H,-0.5941812462,4.6308968075,0.90166
 63436\H,-4.8763762166,-1.8681438246,0.8759690135\\Version=ES64L-G09Rev
 D.01\State=1-A\HF=-948.158336\RMSD=5.724e-09\RMSF=7.883e-06\Dipole=2.0
 899314,1.813743,0.4994649\Quadrupole=4.064945,-1.0393445,-3.0256006,-0
 .7675253,-6.661987,-0.4309563\PG=C01 [X(C12H10N2O5)]\\@


 The theorems and results in mathematical physics are
 not theorems and results about Nature, but about our
 description of it.
                   --Gerard 't Hooft
 Job cpu time:       0 days  6 hours  1 minutes 18.3 seconds.
 File lengths (MBytes):  RWF=     25 Int=      0 D2E=      0 Chk=      4 Scr=      1
 Normal termination of Gaussian 09 at Wed Aug 12 00:46:59 2020.
