 Entering Gaussian System, Link 0=g09
 Input=levofloxacina.gjf
 Output=levofloxacina.log
 Initial command:
 /usr/local/cluster_programs/g09/l1.exe "/tmp/scratch/64215.prometeo/Gau-16910.inp" -scrdir="/tmp/scratch/64215.prometeo/"
 Entering Link 1 = /usr/local/cluster_programs/g09/l1.exe PID=     16911.
  
 Copyright (c) 1988,1990,1992,1993,1995,1998,2003,2009,2013,
            Gaussian, Inc.  All Rights Reserved.
  
 This is part of the Gaussian(R) 09 program.  It is based on
 the Gaussian(R) 03 system (copyright 2003, Gaussian, Inc.),
 the Gaussian(R) 98 system (copyright 1998, Gaussian, Inc.),
 the Gaussian(R) 94 system (copyright 1995, Gaussian, Inc.),
 the Gaussian 92(TM) system (copyright 1992, Gaussian, Inc.),
 the Gaussian 90(TM) system (copyright 1990, Gaussian, Inc.),
 the Gaussian 88(TM) system (copyright 1988, Gaussian, Inc.),
 the Gaussian 86(TM) system (copyright 1986, Carnegie Mellon
 University), and the Gaussian 82(TM) system (copyright 1983,
 Carnegie Mellon University). Gaussian is a federally registered
 trademark of Gaussian, Inc.
  
 This software contains proprietary and confidential information,
 including trade secrets, belonging to Gaussian, Inc.
  
 This software is provided under written license and may be
 used, copied, transmitted, or stored only in accord with that
 written license.
  
 The following legend is applicable only to US Government
 contracts under FAR:
  
                    RESTRICTED RIGHTS LEGEND
  
 Use, reproduction and disclosure by the US Government is
 subject to restrictions as set forth in subparagraphs (a)
 and (c) of the Commercial Computer Software - Restricted
 Rights clause in FAR 52.227-19.
  
 Gaussian, Inc.
 340 Quinnipiac St., Bldg. 40, Wallingford CT 06492
  
  
 ---------------------------------------------------------------
 Warning -- This program may not be used in any manner that
 competes with the business of Gaussian, Inc. or will provide
 assistance to any competitor of Gaussian, Inc.  The licensee
 of this program is prohibited from giving any competitor of
 Gaussian, Inc. access to this program.  By using this program,
 the user acknowledges that Gaussian, Inc. is engaged in the
 business of creating and licensing software in the field of
 computational chemistry and represents and warrants to the
 licensee that it is not a competitor of Gaussian, Inc. and that
 it will not use this program in any manner prohibited above.
 ---------------------------------------------------------------
  

 Cite this work as:
 Gaussian 09, Revision D.01,
 M. J. Frisch, G. W. Trucks, H. B. Schlegel, G. E. Scuseria, 
 M. A. Robb, J. R. Cheeseman, G. Scalmani, V. Barone, B. Mennucci, 
 G. A. Petersson, H. Nakatsuji, M. Caricato, X. Li, H. P. Hratchian, 
 A. F. Izmaylov, J. Bloino, G. Zheng, J. L. Sonnenberg, M. Hada, 
 M. Ehara, K. Toyota, R. Fukuda, J. Hasegawa, M. Ishida, T. Nakajima, 
 Y. Honda, O. Kitao, H. Nakai, T. Vreven, J. A. Montgomery, Jr., 
 J. E. Peralta, F. Ogliaro, M. Bearpark, J. J. Heyd, E. Brothers, 
 K. N. Kudin, V. N. Staroverov, T. Keith, R. Kobayashi, J. Normand, 
 K. Raghavachari, A. Rendell, J. C. Burant, S. S. Iyengar, J. Tomasi, 
 M. Cossi, N. Rega, J. M. Millam, M. Klene, J. E. Knox, J. B. Cross, 
 V. Bakken, C. Adamo, J. Jaramillo, R. Gomperts, R. E. Stratmann, 
 O. Yazyev, A. J. Austin, R. Cammi, C. Pomelli, J. W. Ochterski, 
 R. L. Martin, K. Morokuma, V. G. Zakrzewski, G. A. Voth, 
 P. Salvador, J. J. Dannenberg, S. Dapprich, A. D. Daniels, 
 O. Farkas, J. B. Foresman, J. V. Ortiz, J. Cioslowski, 
 and D. J. Fox, Gaussian, Inc., Wallingford CT, 2013.
 
 ******************************************
 Gaussian 09:  ES64L-G09RevD.01 24-Apr-2013
                21-Jul-2020 
 ******************************************
 %nprocshared=20
 Will use up to   20 processors via shared memory.
 -----------------------------------------------------
 #opt M06/lanl2dz integral=ultrafine geom=connectivity
 -----------------------------------------------------
 1/14=-1,18=20,19=15,26=4,38=1,57=2/1,3;
 2/9=110,12=2,17=6,18=5,40=1/2;
 3/5=6,6=3,11=2,16=1,25=1,30=1,71=1,74=-54,75=-5/1,2,3;
 4//1;
 5/5=2,38=5/2;
 6/7=2,8=2,9=2,10=2,28=1/1;
 7//1,2,3,16;
 1/14=-1,18=20,19=15,26=4/3(2);
 2/9=110/2;
 99//99;
 2/9=110/2;
 3/5=6,6=3,11=2,16=1,25=1,30=1,71=1,74=-54,75=-5/1,2,3;
 4/5=5,16=3,69=1/1;
 5/5=2,38=5/2;
 7//1,2,3,16;
 1/14=-1,18=20,19=15,26=4/3(-5);
 2/9=110/2;
 6/7=2,8=2,9=2,10=2,19=2,28=1/1;
 99/9=1/99;
 -------------------
 Title Card Required
 -------------------
 Symbolic Z-matrix:
 Charge =  0 Multiplicity = 1
 C                     5.6631   -1.10031  -1.5762 
 H                     5.28378  -2.06819  -1.92309 
 H                     6.57114  -1.2869   -0.96981 
 H                     5.946    -0.50865  -2.45311 
 N                     2.67409   0.82116   0.60867 
 C                     3.57064   1.72121  -0.1748 
 C                     4.90166   0.98834  -0.47345 
 C                     3.39052  -0.25041   1.31849 
 C                     4.09096  -1.19323   0.31292 
 N                     4.59748  -0.40504  -0.84151 
 C                     0.0899   -2.51631   1.21054 
 H                    -0.21934  -2.19064   2.21006 
 H                     0.63921  -3.45634   1.26477 
 O                     1.02944  -1.54487   0.62943 
 O                    -3.44798   2.44561  -0.32658 
 O                    -5.82695   1.12199  -0.4517 
 O                    -5.80224  -1.1512   -0.25489 
 N                    -1.75254  -1.28818   0.22773 
 C                     0.45704  -0.26873   0.44238 
 C                    -0.92981  -0.14658   0.24726 
 C                    -1.51773   1.11111   0.04418 
 C                    -1.12802  -2.63948   0.28865 
 C                    -3.08982  -1.14831   0.04999 
 C                    -3.7305    0.04818  -0.12224 
 C                    -2.97764   1.30424  -0.15437 
 C                    -0.69116   2.23638   0.03062 
 C                     1.30418   0.86108   0.43387 
 C                    -0.71938  -3.11995  -1.11413 
 C                     0.658     2.10881   0.22174 
 C                    -5.18593  -0.07731  -0.27659 
 H                    -1.86152  -3.31613   0.7379 
 H                    -3.68648  -2.05387   0.04782 
 H                    -1.14874   3.20541  -0.11323 
 H                    -0.35105  -4.15045  -1.06115 
 H                    -1.57362  -3.08506  -1.79568 
 H                     0.07838  -2.47942  -1.49671 
 H                    -6.79999   0.92463  -0.54652 
 F                     1.446     3.24013   0.23605 
 H                     3.36359  -1.92517  -0.04838 
 H                     4.90873  -1.71973   0.84131 
 H                     4.13486   0.22287   1.97 
 H                     2.69725  -0.81271   1.93661 
 H                     5.37676   1.47924  -1.32928 
 H                     5.59748   1.07315   0.38207 
 H                     3.07813   1.94835  -1.12193 
 H                     3.76401   2.65809   0.3564 
 

 GradGradGradGradGradGradGradGradGradGradGradGradGradGradGradGradGradGrad
 Berny optimization.
 Initialization pass.
                           ----------------------------
                           !    Initial Parameters    !
                           ! (Angstroms and Degrees)  !
 --------------------------                            --------------------------
 ! Name  Definition              Value          Derivative Info.                !
 --------------------------------------------------------------------------------
 ! R1    R(1,2)                  1.0959         estimate D2E/DX2                !
 ! R2    R(1,3)                  1.1077         estimate D2E/DX2                !
 ! R3    R(1,4)                  1.095          estimate D2E/DX2                !
 ! R4    R(1,10)                 1.4693         estimate D2E/DX2                !
 ! R5    R(5,6)                  1.4926         estimate D2E/DX2                !
 ! R6    R(5,8)                  1.4715         estimate D2E/DX2                !
 ! R7    R(5,27)                 1.3816         estimate D2E/DX2                !
 ! R8    R(6,7)                  1.5485         estimate D2E/DX2                !
 ! R9    R(6,45)                 1.0914         estimate D2E/DX2                !
 ! R10   R(6,46)                 1.0942         estimate D2E/DX2                !
 ! R11   R(7,10)                 1.4729         estimate D2E/DX2                !
 ! R12   R(7,43)                 1.0951         estimate D2E/DX2                !
 ! R13   R(7,44)                 1.106          estimate D2E/DX2                !
 ! R14   R(8,9)                  1.5462         estimate D2E/DX2                !
 ! R15   R(8,41)                 1.0966         estimate D2E/DX2                !
 ! R16   R(8,42)                 1.0858         estimate D2E/DX2                !
 ! R17   R(9,10)                 1.4868         estimate D2E/DX2                !
 ! R18   R(9,39)                 1.0933         estimate D2E/DX2                !
 ! R19   R(9,40)                 1.1069         estimate D2E/DX2                !
 ! R20   R(11,12)                1.0958         estimate D2E/DX2                !
 ! R21   R(11,13)                1.0901         estimate D2E/DX2                !
 ! R22   R(11,14)                1.4711         estimate D2E/DX2                !
 ! R23   R(11,22)                1.5324         estimate D2E/DX2                !
 ! R24   R(14,19)                1.4111         estimate D2E/DX2                !
 ! R25   R(15,25)                1.2464         estimate D2E/DX2                !
 ! R26   R(16,30)                1.3711         estimate D2E/DX2                !
 ! R27   R(16,37)                0.9974         estimate D2E/DX2                !
 ! R28   R(17,30)                1.2384         estimate D2E/DX2                !
 ! R29   R(18,20)                1.4073         estimate D2E/DX2                !
 ! R30   R(18,22)                1.4899         estimate D2E/DX2                !
 ! R31   R(18,23)                1.3563         estimate D2E/DX2                !
 ! R32   R(19,20)                1.4058         estimate D2E/DX2                !
 ! R33   R(19,27)                1.4122         estimate D2E/DX2                !
 ! R34   R(20,21)                1.4031         estimate D2E/DX2                !
 ! R35   R(21,25)                1.486          estimate D2E/DX2                !
 ! R36   R(21,26)                1.3963         estimate D2E/DX2                !
 ! R37   R(22,28)                1.5381         estimate D2E/DX2                !
 ! R38   R(22,31)                1.0944         estimate D2E/DX2                !
 ! R39   R(23,24)                1.3681         estimate D2E/DX2                !
 ! R40   R(23,32)                1.0845         estimate D2E/DX2                !
 ! R41   R(24,25)                1.4648         estimate D2E/DX2                !
 ! R42   R(24,30)                1.469          estimate D2E/DX2                !
 ! R43   R(26,29)                1.3686         estimate D2E/DX2                !
 ! R44   R(26,33)                1.0812         estimate D2E/DX2                !
 ! R45   R(27,29)                1.421          estimate D2E/DX2                !
 ! R46   R(28,34)                1.0956         estimate D2E/DX2                !
 ! R47   R(28,35)                1.0934         estimate D2E/DX2                !
 ! R48   R(28,36)                1.0923         estimate D2E/DX2                !
 ! R49   R(29,38)                1.3788         estimate D2E/DX2                !
 ! A1    A(2,1,3)              107.9533         estimate D2E/DX2                !
 ! A2    A(2,1,4)              108.2481         estimate D2E/DX2                !
 ! A3    A(2,1,10)             108.9761         estimate D2E/DX2                !
 ! A4    A(3,1,4)              108.519          estimate D2E/DX2                !
 ! A5    A(3,1,10)             113.6105         estimate D2E/DX2                !
 ! A6    A(4,1,10)             109.3978         estimate D2E/DX2                !
 ! A7    A(6,5,8)              113.571          estimate D2E/DX2                !
 ! A8    A(6,5,27)             120.7814         estimate D2E/DX2                !
 ! A9    A(8,5,27)             124.3894         estimate D2E/DX2                !
 ! A10   A(5,6,7)              109.3999         estimate D2E/DX2                !
 ! A11   A(5,6,45)             108.0572         estimate D2E/DX2                !
 ! A12   A(5,6,46)             111.5699         estimate D2E/DX2                !
 ! A13   A(7,6,45)             108.603          estimate D2E/DX2                !
 ! A14   A(7,6,46)             110.3005         estimate D2E/DX2                !
 ! A15   A(45,6,46)            108.834          estimate D2E/DX2                !
 ! A16   A(6,7,10)             108.5658         estimate D2E/DX2                !
 ! A17   A(6,7,43)             108.1492         estimate D2E/DX2                !
 ! A18   A(6,7,44)             110.8115         estimate D2E/DX2                !
 ! A19   A(10,7,43)            108.5645         estimate D2E/DX2                !
 ! A20   A(10,7,44)            113.3129         estimate D2E/DX2                !
 ! A21   A(43,7,44)            107.2901         estimate D2E/DX2                !
 ! A22   A(5,8,9)              110.5412         estimate D2E/DX2                !
 ! A23   A(5,8,41)             107.6238         estimate D2E/DX2                !
 ! A24   A(5,8,42)             109.9303         estimate D2E/DX2                !
 ! A25   A(9,8,41)             110.0026         estimate D2E/DX2                !
 ! A26   A(9,8,42)             110.1031         estimate D2E/DX2                !
 ! A27   A(41,8,42)            108.5839         estimate D2E/DX2                !
 ! A28   A(8,9,10)             109.6363         estimate D2E/DX2                !
 ! A29   A(8,9,39)             108.7688         estimate D2E/DX2                !
 ! A30   A(8,9,40)             108.3175         estimate D2E/DX2                !
 ! A31   A(10,9,39)            108.9636         estimate D2E/DX2                !
 ! A32   A(10,9,40)            111.7853         estimate D2E/DX2                !
 ! A33   A(39,9,40)            109.3197         estimate D2E/DX2                !
 ! A34   A(1,10,7)             115.0137         estimate D2E/DX2                !
 ! A35   A(1,10,9)             112.6116         estimate D2E/DX2                !
 ! A36   A(7,10,9)             112.1993         estimate D2E/DX2                !
 ! A37   A(12,11,13)           110.678          estimate D2E/DX2                !
 ! A38   A(12,11,14)           110.1393         estimate D2E/DX2                !
 ! A39   A(12,11,22)           110.386          estimate D2E/DX2                !
 ! A40   A(13,11,14)           105.501          estimate D2E/DX2                !
 ! A41   A(13,11,22)           111.1671         estimate D2E/DX2                !
 ! A42   A(14,11,22)           108.8462         estimate D2E/DX2                !
 ! A43   A(11,14,19)           112.9844         estimate D2E/DX2                !
 ! A44   A(30,16,37)           107.1681         estimate D2E/DX2                !
 ! A45   A(20,18,22)           119.3487         estimate D2E/DX2                !
 ! A46   A(20,18,23)           119.6427         estimate D2E/DX2                !
 ! A47   A(22,18,23)           120.8099         estimate D2E/DX2                !
 ! A48   A(14,19,20)           119.8118         estimate D2E/DX2                !
 ! A49   A(14,19,27)           118.7509         estimate D2E/DX2                !
 ! A50   A(20,19,27)           121.4287         estimate D2E/DX2                !
 ! A51   A(18,20,19)           120.5415         estimate D2E/DX2                !
 ! A52   A(18,20,21)           118.6954         estimate D2E/DX2                !
 ! A53   A(19,20,21)           120.7532         estimate D2E/DX2                !
 ! A54   A(20,21,25)           123.1971         estimate D2E/DX2                !
 ! A55   A(20,21,26)           118.4072         estimate D2E/DX2                !
 ! A56   A(25,21,26)           118.3956         estimate D2E/DX2                !
 ! A57   A(11,22,18)           106.5489         estimate D2E/DX2                !
 ! A58   A(11,22,28)           111.2616         estimate D2E/DX2                !
 ! A59   A(11,22,31)           109.5984         estimate D2E/DX2                !
 ! A60   A(18,22,28)           110.9407         estimate D2E/DX2                !
 ! A61   A(18,22,31)           107.2546         estimate D2E/DX2                !
 ! A62   A(28,22,31)           111.0583         estimate D2E/DX2                !
 ! A63   A(18,23,24)           124.6407         estimate D2E/DX2                !
 ! A64   A(18,23,32)           117.1705         estimate D2E/DX2                !
 ! A65   A(24,23,32)           118.1887         estimate D2E/DX2                !
 ! A66   A(23,24,25)           120.798          estimate D2E/DX2                !
 ! A67   A(23,24,30)           113.7343         estimate D2E/DX2                !
 ! A68   A(25,24,30)           125.4649         estimate D2E/DX2                !
 ! A69   A(15,25,21)           120.5449         estimate D2E/DX2                !
 ! A70   A(15,25,24)           126.4639         estimate D2E/DX2                !
 ! A71   A(21,25,24)           112.9912         estimate D2E/DX2                !
 ! A72   A(21,26,29)           120.4707         estimate D2E/DX2                !
 ! A73   A(21,26,33)           118.2314         estimate D2E/DX2                !
 ! A74   A(29,26,33)           121.2854         estimate D2E/DX2                !
 ! A75   A(5,27,19)            124.8155         estimate D2E/DX2                !
 ! A76   A(5,27,29)            119.6782         estimate D2E/DX2                !
 ! A77   A(19,27,29)           115.5058         estimate D2E/DX2                !
 ! A78   A(22,28,34)           109.8178         estimate D2E/DX2                !
 ! A79   A(22,28,35)           110.5472         estimate D2E/DX2                !
 ! A80   A(22,28,36)           109.2874         estimate D2E/DX2                !
 ! A81   A(34,28,35)           108.8338         estimate D2E/DX2                !
 ! A82   A(34,28,36)           108.8417         estimate D2E/DX2                !
 ! A83   A(35,28,36)           109.4862         estimate D2E/DX2                !
 ! A84   A(26,29,27)           123.4322         estimate D2E/DX2                !
 ! A85   A(26,29,38)           119.2336         estimate D2E/DX2                !
 ! A86   A(27,29,38)           117.3242         estimate D2E/DX2                !
 ! A87   A(16,30,17)           121.877          estimate D2E/DX2                !
 ! A88   A(16,30,24)           113.6974         estimate D2E/DX2                !
 ! A89   A(17,30,24)           124.4256         estimate D2E/DX2                !
 ! D1    D(2,1,10,7)          -171.9744         estimate D2E/DX2                !
 ! D2    D(2,1,10,9)            57.7857         estimate D2E/DX2                !
 ! D3    D(3,1,10,7)            67.6253         estimate D2E/DX2                !
 ! D4    D(3,1,10,9)           -62.6147         estimate D2E/DX2                !
 ! D5    D(4,1,10,7)           -53.8015         estimate D2E/DX2                !
 ! D6    D(4,1,10,9)           175.9585         estimate D2E/DX2                !
 ! D7    D(8,5,6,7)             21.7618         estimate D2E/DX2                !
 ! D8    D(8,5,6,45)           139.8313         estimate D2E/DX2                !
 ! D9    D(8,5,6,46)          -100.5645         estimate D2E/DX2                !
 ! D10   D(27,5,6,7)          -145.9693         estimate D2E/DX2                !
 ! D11   D(27,5,6,45)          -27.8998         estimate D2E/DX2                !
 ! D12   D(27,5,6,46)           91.7044         estimate D2E/DX2                !
 ! D13   D(6,5,8,9)            -63.2652         estimate D2E/DX2                !
 ! D14   D(6,5,8,41)            56.8879         estimate D2E/DX2                !
 ! D15   D(6,5,8,42)           174.9792         estimate D2E/DX2                !
 ! D16   D(27,5,8,9)           103.9534         estimate D2E/DX2                !
 ! D17   D(27,5,8,41)         -135.8936         estimate D2E/DX2                !
 ! D18   D(27,5,8,42)          -17.8022         estimate D2E/DX2                !
 ! D19   D(6,5,27,19)          141.7318         estimate D2E/DX2                !
 ! D20   D(6,5,27,29)          -38.0134         estimate D2E/DX2                !
 ! D21   D(8,5,27,19)          -24.6163         estimate D2E/DX2                !
 ! D22   D(8,5,27,29)          155.6386         estimate D2E/DX2                !
 ! D23   D(5,6,7,10)            41.556          estimate D2E/DX2                !
 ! D24   D(5,6,7,43)           159.1713         estimate D2E/DX2                !
 ! D25   D(5,6,7,44)           -83.4934         estimate D2E/DX2                !
 ! D26   D(45,6,7,10)          -76.1721         estimate D2E/DX2                !
 ! D27   D(45,6,7,43)           41.4433         estimate D2E/DX2                !
 ! D28   D(45,6,7,44)          158.7786         estimate D2E/DX2                !
 ! D29   D(46,6,7,10)          164.6386         estimate D2E/DX2                !
 ! D30   D(46,6,7,43)          -77.746          estimate D2E/DX2                !
 ! D31   D(46,6,7,44)           39.5893         estimate D2E/DX2                !
 ! D32   D(6,7,10,1)           160.3814         estimate D2E/DX2                !
 ! D33   D(6,7,10,9)           -69.1785         estimate D2E/DX2                !
 ! D34   D(43,7,10,1)           43.0309         estimate D2E/DX2                !
 ! D35   D(43,7,10,9)          173.471          estimate D2E/DX2                !
 ! D36   D(44,7,10,1)          -76.0552         estimate D2E/DX2                !
 ! D37   D(44,7,10,9)           54.3849         estimate D2E/DX2                !
 ! D38   D(5,8,9,10)            36.0974         estimate D2E/DX2                !
 ! D39   D(5,8,9,39)           -82.9581         estimate D2E/DX2                !
 ! D40   D(5,8,9,40)           158.3193         estimate D2E/DX2                !
 ! D41   D(41,8,9,10)          -82.6193         estimate D2E/DX2                !
 ! D42   D(41,8,9,39)          158.3252         estimate D2E/DX2                !
 ! D43   D(41,8,9,40)           39.6026         estimate D2E/DX2                !
 ! D44   D(42,8,9,10)          157.7511         estimate D2E/DX2                !
 ! D45   D(42,8,9,39)           38.6956         estimate D2E/DX2                !
 ! D46   D(42,8,9,40)          -80.027          estimate D2E/DX2                !
 ! D47   D(8,9,10,1)           159.2612         estimate D2E/DX2                !
 ! D48   D(8,9,10,7)            27.6036         estimate D2E/DX2                !
 ! D49   D(39,9,10,1)          -81.8034         estimate D2E/DX2                !
 ! D50   D(39,9,10,7)          146.539          estimate D2E/DX2                !
 ! D51   D(40,9,10,1)           39.1316         estimate D2E/DX2                !
 ! D52   D(40,9,10,7)          -92.526          estimate D2E/DX2                !
 ! D53   D(12,11,14,19)        -62.6729         estimate D2E/DX2                !
 ! D54   D(13,11,14,19)        177.8538         estimate D2E/DX2                !
 ! D55   D(22,11,14,19)         58.4731         estimate D2E/DX2                !
 ! D56   D(12,11,22,18)         59.9633         estimate D2E/DX2                !
 ! D57   D(12,11,22,28)       -178.9924         estimate D2E/DX2                !
 ! D58   D(12,11,22,31)        -55.7751         estimate D2E/DX2                !
 ! D59   D(13,11,22,18)       -176.8163         estimate D2E/DX2                !
 ! D60   D(13,11,22,28)        -55.7721         estimate D2E/DX2                !
 ! D61   D(13,11,22,31)         67.4453         estimate D2E/DX2                !
 ! D62   D(14,11,22,18)        -61.0315         estimate D2E/DX2                !
 ! D63   D(14,11,22,28)         60.0128         estimate D2E/DX2                !
 ! D64   D(14,11,22,31)       -176.7699         estimate D2E/DX2                !
 ! D65   D(11,14,19,20)        -26.9597         estimate D2E/DX2                !
 ! D66   D(11,14,19,27)        154.0932         estimate D2E/DX2                !
 ! D67   D(37,16,30,17)         -0.073          estimate D2E/DX2                !
 ! D68   D(37,16,30,24)        179.9216         estimate D2E/DX2                !
 ! D69   D(22,18,20,19)         -5.663          estimate D2E/DX2                !
 ! D70   D(22,18,20,21)        173.197          estimate D2E/DX2                !
 ! D71   D(23,18,20,19)        179.416          estimate D2E/DX2                !
 ! D72   D(23,18,20,21)         -1.724          estimate D2E/DX2                !
 ! D73   D(20,18,22,11)         35.7886         estimate D2E/DX2                !
 ! D74   D(20,18,22,28)        -85.4605         estimate D2E/DX2                !
 ! D75   D(20,18,22,31)        153.0919         estimate D2E/DX2                !
 ! D76   D(23,18,22,11)       -149.3512         estimate D2E/DX2                !
 ! D77   D(23,18,22,28)         89.3996         estimate D2E/DX2                !
 ! D78   D(23,18,22,31)        -32.0479         estimate D2E/DX2                !
 ! D79   D(20,18,23,24)          0.2234         estimate D2E/DX2                !
 ! D80   D(20,18,23,32)       -179.6289         estimate D2E/DX2                !
 ! D81   D(22,18,23,24)       -174.6218         estimate D2E/DX2                !
 ! D82   D(22,18,23,32)          5.5259         estimate D2E/DX2                !
 ! D83   D(14,19,20,18)         -0.4329         estimate D2E/DX2                !
 ! D84   D(14,19,20,21)       -179.2693         estimate D2E/DX2                !
 ! D85   D(27,19,20,18)        178.4853         estimate D2E/DX2                !
 ! D86   D(27,19,20,21)         -0.3511         estimate D2E/DX2                !
 ! D87   D(14,19,27,5)          -0.6034         estimate D2E/DX2                !
 ! D88   D(14,19,27,29)        179.1512         estimate D2E/DX2                !
 ! D89   D(20,19,27,5)        -179.5328         estimate D2E/DX2                !
 ! D90   D(20,19,27,29)          0.2218         estimate D2E/DX2                !
 ! D91   D(18,20,21,25)          1.747          estimate D2E/DX2                !
 ! D92   D(18,20,21,26)       -178.3846         estimate D2E/DX2                !
 ! D93   D(19,20,21,25)       -179.3954         estimate D2E/DX2                !
 ! D94   D(19,20,21,26)          0.4729         estimate D2E/DX2                !
 ! D95   D(20,21,25,15)        179.7698         estimate D2E/DX2                !
 ! D96   D(20,21,25,24)         -0.2913         estimate D2E/DX2                !
 ! D97   D(26,21,25,15)         -0.0986         estimate D2E/DX2                !
 ! D98   D(26,21,25,24)        179.8403         estimate D2E/DX2                !
 ! D99   D(20,21,26,29)         -0.4903         estimate D2E/DX2                !
 ! D100  D(20,21,26,33)       -179.217          estimate D2E/DX2                !
 ! D101  D(25,21,26,29)        179.3845         estimate D2E/DX2                !
 ! D102  D(25,21,26,33)          0.6578         estimate D2E/DX2                !
 ! D103  D(11,22,28,34)         66.9256         estimate D2E/DX2                !
 ! D104  D(11,22,28,35)       -172.9728         estimate D2E/DX2                !
 ! D105  D(11,22,28,36)        -52.4025         estimate D2E/DX2                !
 ! D106  D(18,22,28,34)       -174.6397         estimate D2E/DX2                !
 ! D107  D(18,22,28,35)        -54.5381         estimate D2E/DX2                !
 ! D108  D(18,22,28,36)         66.0322         estimate D2E/DX2                !
 ! D109  D(31,22,28,34)        -55.4523         estimate D2E/DX2                !
 ! D110  D(31,22,28,35)         64.6493         estimate D2E/DX2                !
 ! D111  D(31,22,28,36)       -174.7805         estimate D2E/DX2                !
 ! D112  D(18,23,24,25)          1.3198         estimate D2E/DX2                !
 ! D113  D(18,23,24,30)       -179.2544         estimate D2E/DX2                !
 ! D114  D(32,23,24,25)       -178.8293         estimate D2E/DX2                !
 ! D115  D(32,23,24,30)          0.5965         estimate D2E/DX2                !
 ! D116  D(23,24,25,15)        178.7201         estimate D2E/DX2                !
 ! D117  D(23,24,25,21)         -1.2145         estimate D2E/DX2                !
 ! D118  D(30,24,25,15)         -0.6346         estimate D2E/DX2                !
 ! D119  D(30,24,25,21)        179.4308         estimate D2E/DX2                !
 ! D120  D(23,24,30,16)       -179.8822         estimate D2E/DX2                !
 ! D121  D(23,24,30,17)          0.1123         estimate D2E/DX2                !
 ! D122  D(25,24,30,16)         -0.4877         estimate D2E/DX2                !
 ! D123  D(25,24,30,17)        179.5068         estimate D2E/DX2                !
 ! D124  D(21,26,29,27)          0.3921         estimate D2E/DX2                !
 ! D125  D(21,26,29,38)       -178.4226         estimate D2E/DX2                !
 ! D126  D(33,26,29,27)        179.0794         estimate D2E/DX2                !
 ! D127  D(33,26,29,38)          0.2647         estimate D2E/DX2                !
 ! D128  D(5,27,29,26)         179.522          estimate D2E/DX2                !
 ! D129  D(5,27,29,38)          -1.6422         estimate D2E/DX2                !
 ! D130  D(19,27,29,26)         -0.2462         estimate D2E/DX2                !
 ! D131  D(19,27,29,38)        178.5896         estimate D2E/DX2                !
 --------------------------------------------------------------------------------
 Trust Radius=3.00D-01 FncErr=1.00D-07 GrdErr=1.00D-06
 Number of steps in this run=    276 maximum allowed number of steps=    276.
 GradGradGradGradGradGradGradGradGradGradGradGradGradGradGradGradGradGrad

                          Input orientation:                          
 ---------------------------------------------------------------------
 Center     Atomic      Atomic             Coordinates (Angstroms)
 Number     Number       Type             X           Y           Z
 ---------------------------------------------------------------------
      1          6           0        5.663100   -1.100308   -1.576199
      2          1           0        5.283776   -2.068185   -1.923093
      3          1           0        6.571140   -1.286901   -0.969814
      4          1           0        5.945995   -0.508645   -2.453110
      5          7           0        2.674089    0.821163    0.608674
      6          6           0        3.570638    1.721205   -0.174802
      7          6           0        4.901662    0.988343   -0.473445
      8          6           0        3.390515   -0.250412    1.318494
      9          6           0        4.090962   -1.193233    0.312921
     10          7           0        4.597483   -0.405035   -0.841514
     11          6           0        0.089895   -2.516305    1.210543
     12          1           0       -0.219339   -2.190642    2.210064
     13          1           0        0.639205   -3.456339    1.264766
     14          8           0        1.029445   -1.544868    0.629428
     15          8           0       -3.447984    2.445613   -0.326576
     16          8           0       -5.826948    1.121988   -0.451699
     17          8           0       -5.802235   -1.151203   -0.254887
     18          7           0       -1.752535   -1.288175    0.227728
     19          6           0        0.457039   -0.268730    0.442380
     20          6           0       -0.929806   -0.146577    0.247256
     21          6           0       -1.517732    1.111107    0.044177
     22          6           0       -1.128021   -2.639482    0.288652
     23          6           0       -3.089815   -1.148309    0.049987
     24          6           0       -3.730501    0.048184   -0.122243
     25          6           0       -2.977641    1.304241   -0.154371
     26          6           0       -0.691162    2.236378    0.030618
     27          6           0        1.304177    0.861083    0.433872
     28          6           0       -0.719383   -3.119953   -1.114131
     29          6           0        0.658004    2.108812    0.221740
     30          6           0       -5.185933   -0.077314   -0.276591
     31          1           0       -1.861524   -3.316127    0.737896
     32          1           0       -3.686476   -2.053865    0.047820
     33          1           0       -1.148736    3.205406   -0.113234
     34          1           0       -0.351049   -4.150451   -1.061147
     35          1           0       -1.573617   -3.085055   -1.795681
     36          1           0        0.078384   -2.479422   -1.496708
     37          1           0       -6.799994    0.924632   -0.546519
     38          9           0        1.445995    3.240132    0.236052
     39          1           0        3.363593   -1.925165   -0.048377
     40          1           0        4.908729   -1.719733    0.841305
     41          1           0        4.134861    0.222872    1.969997
     42          1           0        2.697253   -0.812705    1.936614
     43          1           0        5.376765    1.479239   -1.329279
     44          1           0        5.597478    1.073148    0.382069
     45          1           0        3.078131    1.948353   -1.121930
     46          1           0        3.764009    2.658094    0.356403
 ---------------------------------------------------------------------
                    Distance matrix (angstroms):
                    1          2          3          4          5
     1  C    0.000000
     2  H    1.095905   0.000000
     3  H    1.107726   1.782260   0.000000
     4  H    1.095019   1.775279   1.787919   0.000000
     5  N    4.171320   4.644205   4.703463   4.674214   0.000000
     6  C    3.781963   4.511191   4.322471   3.975580   1.492552
     7  C    2.481596   3.404387   2.865358   2.692708   2.482139
     8  C    3.777064   4.170926   4.053028   4.563130   1.471524
     9  C    2.459477   2.681064   2.793826   3.400108   2.480482
    10  N    1.469254   2.099257   2.165519   2.103916   2.702971
    11  C    6.389960   6.082507   6.947800   7.193536   4.263684
    12  H    7.080092   6.883477   7.552415   7.911109   4.472957
    13  H    6.233898   5.801849   6.699826   7.118534   4.782074
    14  O    5.151037   4.988843   5.773604   5.894766   2.881560
    15  O    9.856316   9.958256  10.711128  10.074554   6.402602
    16  O   11.756883  11.652913  12.640561  12.052668   8.572194
    17  O   11.541333  11.248262  12.394755  11.969376   8.745515
    18  N    7.634205   7.398927   8.409380   8.189134   4.918275
    19  C    5.645286   5.668412   6.357137   6.210480   2.476052
    20  C    6.906591   6.856500   7.684126   7.395925   3.749027
    21  C    7.686373   7.761350   8.497557   8.035376   4.239586
    22  C    7.208748   6.806566   7.917720   7.880319   5.151167
    23  C    8.902826   8.651950   9.715619   9.397900   6.116661
    24  C    9.574589   9.432882  10.422314   9.968830   6.492342
    25  C    9.081071   9.096848   9.927647   9.391594   5.723430
    26  C    7.354725   7.618801   8.133596   7.599731   3.696200
    27  C    5.185330   5.474770   5.858760   5.635361   1.381596
    28  C    6.710332   6.148053   7.518819   7.282792   5.478696
    29  C    6.211443   6.591311   6.922127   6.478329   2.423295
    30  C   10.974380  10.783754  11.839444  11.350908   7.960584
    31  H    8.178316   7.726159   8.839901   8.889422   6.140493
    32  H    9.537362   9.184232  10.336465  10.071090   7.002652
    33  H    8.190272   8.512553   8.972794   8.342925   4.562867
    34  H    6.763035   6.068775   7.491659   7.406286   6.054478
    35  H    7.507161   6.933549   8.381675   7.975880   6.251597
    36  H    5.753028   5.238991   6.622356   6.263188   4.697252
    37  H   12.668439  12.524752  13.559398  12.967251   9.544811
    38  F    6.317250   6.897007   6.943720   6.444759   2.738334
    39  H    2.881382   2.687400   3.397762   3.802377   2.906794
    40  H    2.607123   2.811401   2.496218   3.660031   3.391738
    41  H    4.081890   4.661019   4.105771   4.835204   2.084468
    42  H    4.606389   4.812865   4.866126   5.469594   2.105584
    43  H    2.607109   3.597983   3.034350   2.353445   3.390160
    44  H    2.926266   3.908984   2.888847   3.265237   2.942966
    45  H    4.022780   4.651807   4.763520   4.004188   2.104471
    46  H    4.633258   5.462921   5.020142   4.762632   2.150786
                    6          7          8          9         10
     6  C    0.000000
     7  C    1.548515   0.000000
     8  C    2.479849   2.651250   0.000000
     9  C    3.000427   2.456599   1.546194   0.000000
    10  N    2.453531   1.472923   2.479176   1.486788   0.000000
    11  C    5.656080   6.186394   4.004999   4.308687   5.383934
    12  H    5.945928   6.597865   4.194095   4.813800   5.975140
    13  H    6.121488   6.398837   4.224992   4.235833   5.423545
    14  O    4.215647   4.756843   2.779403   3.097856   4.024150
    15  O    7.057539   8.477134   7.532588   8.395586   8.551076
    16  O    9.420741  10.729464   9.485710  10.213218  10.542889
    17  O    9.803463  10.917822   9.369824   9.909567  10.442942
    18  N    6.128178   7.067709   5.358888   5.844889   6.499688
    19  C    3.746365   4.708890   3.061567   3.751914   4.337077
    20  C    4.890883   5.984436   4.452360   5.129124   5.639428
    21  C    5.129491   6.441399   5.250572   6.069568   6.362310
    22  C    6.427113   7.078064   5.213962   5.415719   6.249114
    23  C    7.255775   8.288725   6.664083   7.185730   7.774431
    24  C    7.490554   8.690310   7.271434   7.931316   8.371265
    25  C    6.561573   7.892086   6.718608   7.511384   7.795915
    26  C    4.297737   5.752508   4.950034   5.891573   5.975570
    27  C    2.499428   3.712320   2.524041   3.464248   3.751737
    28  C    6.536316   6.991761   5.571642   5.374769   5.976133
    29  C    2.964949   4.443801   3.772986   4.764139   4.792643
    30  C    8.939942  10.145637   8.725235   9.362349   9.805191
    31  H    7.464323   8.107805   6.108978   6.333985   7.258634
    32  H    8.183301   9.125944   7.412885   7.829400   8.493146
    33  H    4.947639   6.453870   5.881949   6.854493   6.825299
    34  H    7.116290   7.371809   5.905277   5.510414   6.210020
    35  H    7.224316   7.763383   6.509677   6.333455   6.795250
    36  H    5.620368   6.027974   4.885085   4.585828   5.015438
    37  H   10.407820  11.702058  10.426192  11.128203  11.478568
    38  F    2.643870   4.185161   4.139654   5.162992   4.937638
    39  H    3.654431   3.321877   2.161911   1.093310   2.112427
    40  H    3.829232   3.010364   2.166007   1.106858   2.158051
    41  H    2.676474   2.672890   1.096588   2.180179   2.917684
    42  H    3.411976   3.729823   1.085752   2.173386   3.390437
    43  H    2.157188   1.095059   3.734646   3.390017   2.096589
    44  H    2.199583   1.106009   2.738501   2.722289   2.163832
    45  H    1.091426   2.160421   3.299670   3.599192   2.815226
    46  H    1.094227   2.184255   3.086183   3.865425   3.392999
                   11         12         13         14         15
    11  C    0.000000
    12  H    1.095776   0.000000
    13  H    1.090113   1.797964   0.000000
    14  O    1.471101   2.115395   2.051746   0.000000
    15  O    6.284899   6.193024   7.353266   6.073323   0.000000
    16  O    7.142076   7.035892   8.106693   7.435797   2.725272
    17  O    6.223197   6.190731   7.008220   6.899916   4.299386
    18  N    2.422556   2.663605   3.390694   2.822528   4.137991
    19  C    2.403427   2.697395   3.297022   1.411086   4.817484
    20  C    2.753783   2.921572   3.801532   2.437199   3.659228
    21  C    4.135576   4.156734   5.196516   3.726236   2.375760
    22  C    1.532441   2.172322   2.177875   2.443147   5.623071
    23  C    3.650871   3.740591   4.550635   4.178674   3.631303
    24  C    4.790443   4.772867   5.770598   5.075422   2.422650
    25  C    5.086191   5.041130   6.144806   4.978805   1.246438
    26  C    4.958858   4.956925   5.974950   4.197247   2.787729
    27  C    3.672118   3.845645   4.446651   2.429469   5.066759
    28  C    2.534449   3.487683   2.760085   2.929043   6.248282
    29  C    4.763632   4.817517   5.662081   3.695072   4.156107
    30  C    5.999550   5.942783   6.908388   6.450233   3.064005
    31  H    2.161284   2.476039   2.559472   3.392171   6.070223
    32  H    3.978285   4.088404   4.707378   4.778834   4.521322
    33  H    6.002047   5.948010   7.033809   5.278364   2.430914
    34  H    2.832921   3.815628   2.621501   3.398951   7.323842
    35  H    3.482547   4.322041   3.794834   3.876759   6.021612
    36  H    2.707527   3.729905   2.982386   2.509654   6.169315
    37  H    7.899233   7.785159   8.821300   8.293455   3.687510
    38  F    5.993764   6.013599   6.822894   4.819179   4.989874
    39  H    3.556884   4.243635   3.389857   2.460141   8.098066
    40  H    4.898165   5.328446   4.628602   3.888999   9.410032
    41  H    4.943846   4.984149   5.123822   3.816496   8.228874
    42  H    3.198085   3.237282   3.416978   2.241959   7.314547
    43  H    7.096905   7.570426   7.316657   5.646322   8.933951
    44  H    6.626010   6.915869   6.773469   5.270875   9.176395
    45  H    5.856890   6.253541   6.391821   4.412138   6.593181
    46  H    6.403364   6.543192   6.926458   5.021680   7.247375
                   16         17         18         19         20
    16  O    0.000000
    17  O    2.281829   0.000000
    18  N    4.782400   4.080655   0.000000
    19  C    6.497843   6.359517   2.442859   0.000000
    20  C    5.106838   5.000199   1.407306   1.405821   0.000000
    21  C    4.337667   4.854323   2.417722   2.441769   1.403092
    22  C    6.064379   4.935452   1.489886   2.855961   2.501115
    23  C    3.591356   2.729502   1.356271   3.675297   2.389146
    24  C    2.378379   2.397542   2.412609   4.237302   2.831670
    25  C    2.870570   3.744014   2.892664   3.824575   2.541615
    26  C    5.277385   6.138427   3.686169   2.786302   2.404653
    27  C    7.190636   7.417869   3.742365   1.412159   2.457821
    28  C    6.672338   5.518121   2.494674   3.454876   3.276983
    29  C    6.594084   7.251866   4.165364   2.396200   2.758364
    30  C    1.371090   1.238361   3.675424   5.691809   4.288803
    31  H    6.069315   4.604532   2.093977   3.840533   3.339891
    32  H    3.862277   2.320101   2.087768   4.528918   3.358088
    33  H    5.132334   6.376140   4.546768   3.867408   3.378413
    34  H    7.625976   6.273832   3.437730   4.240443   4.251810
    35  H    6.131584   4.898473   2.712005   4.130880   3.636308
    36  H    6.995366   6.155320   2.782986   2.964895   3.082211
    37  H    0.997376   2.321565   5.565323   7.420685   6.019691
    38  F    7.606263   8.488915   5.544026   3.651399   4.136950
    39  H    9.690916   9.200764   5.163018   3.381224   4.656613
    40  H   11.180429  10.781911   6.703369   4.699159   6.075871
    41  H   10.291290  10.275411   6.322989   4.012687   5.362386
    42  H    9.061406   8.783994   4.790300   2.747217   4.056256
    43  H   11.243708  11.534452   7.804471   5.513427   6.700864
    44  H   11.454914  11.632150   7.721552   5.313039   6.641637
    45  H    8.968418   9.445629   5.969257   3.772618   4.725141
    46  H    9.746749  10.314914   6.783941   4.416983   5.469003
                   21         22         23         24         25
    21  C    0.000000
    22  C    3.778698   0.000000
    23  C    2.752533   2.475721   0.000000
    24  C    2.460457   3.763680   1.368114   0.000000
    25  C    1.485953   4.378392   2.463604   1.464756   0.000000
    26  C    1.396294   4.902187   4.148496   3.748218   2.476103
    27  C    2.859641   4.265048   4.846874   5.130112   4.344696
    28  C    4.458801   1.538063   3.295679   4.481938   5.059087
    29  C    2.400161   5.073525   4.968348   4.860400   3.742554
    30  C    3.869229   4.832272   2.376425   1.468964   2.607717
    31  H    4.494423   1.094393   2.584831   3.943539   4.836286
    32  H    3.836732   2.635648   1.084454   2.109377   3.438052
    33  H    2.132375   5.858725   4.769619   4.078436   2.638373
    34  H    5.501535   2.169947   4.212875   5.470902   6.121674
    35  H    4.582137   2.177507   3.075115   4.155686   4.891942
    36  H    4.220641   2.160681   3.768503   4.773421   5.045519
    37  H    5.318457   6.750681   4.291658   3.220242   3.861122
    38  F    3.654209   6.418581   6.314001   6.092045   4.844446
    39  H    5.749335   4.560530   6.500743   7.363812   7.116990
    40  H    7.067423   6.131371   8.057879   8.870753   8.504741
    41  H    6.037346   6.222372   7.600166   8.140756   7.501332
    42  H    5.004845   4.548144   6.096076   6.804120   6.407660
    43  H    7.039602   7.867262   8.971586   9.297696   8.438432
    44  H    7.123330   7.682752   8.972971   9.397663   8.594989
    45  H    4.814846   6.381981   7.000447   7.139152   6.166314
    46  H    5.512481   7.211162   7.845859   7.950372   6.895191
                   26         27         28         29         30
    26  C    0.000000
    27  C    2.456711   0.000000
    28  C    5.477365   4.726495   0.000000
    29  C    1.368594   1.421044   5.569715   0.000000
    30  C    5.064634   6.595974   5.468930   6.259319   0.000000
    31  H    5.718418   5.250064   2.184714   6.003699   4.750872
    32  H    5.232436   5.792458   3.360106   6.019355   2.502073
    33  H    1.081241   3.436853   6.418435   2.139868   5.205948
    34  H    6.488391   5.485465   1.095629   6.468567   6.370406
    35  H    5.694888   5.368856   1.093364   6.002197   4.939936
    36  H    5.016343   4.048294   1.092281   4.933651   5.913700
    37  H    6.274679   8.163504   7.324936   7.590404   1.918841
    38  F    2.370056   2.391468   6.852922   1.378775   7.433083
    39  H    5.810828   3.498133   4.385663   4.864786   8.749916
    40  H    6.904115   4.451899   6.120457   5.754153  10.288315
    41  H    5.577266   3.283255   6.652068   4.324547   9.592417
    42  H    4.940757   2.645838   5.128727   3.954060   8.220930
    43  H    6.264369   4.480713   7.639494   5.006868  10.728541
    44  H    6.404968   4.298847   7.728094   5.049427  10.864592
    45  H    3.952075   2.597997   6.333159   2.772762   8.550595
    46  H    4.486929   3.047298   7.459833   3.157073   9.380011
                   31         32         33         34         35
    31  H    0.000000
    32  H    2.323781   0.000000
    33  H    6.615352   5.841746   0.000000
    34  H    2.492827   4.092744   7.459455   0.000000
    35  H    2.560331   2.987645   6.525416   1.780248   0.000000
    36  H    3.075187   4.091557   5.978051   1.779456   1.784736
    37  H    6.634926   4.349561   6.109532   8.222542   6.704701
    38  F    7.360439   7.375913   2.618365   7.715751   7.297533
    39  H    5.463959   7.051900   6.832867   4.447040   5.364183
    40  H    6.956687   8.638218   7.865178   6.098605   7.130120
    41  H    7.071013   8.369684   6.414964   6.959682   7.596672
    42  H    5.337274   6.772002   5.927793   5.423953   6.110150
    43  H    8.925333   9.824539   6.858614   8.035742   8.328152
    44  H    8.661932   9.802129   7.092479   8.046977   8.570756
    45  H    7.454790   7.946444   4.523721   6.997027   6.886791
    46  H    8.214833   8.820856   4.965398   8.080807   8.130527
                   36         37         38         39         40
    36  H    0.000000
    37  H    7.733209   0.000000
    38  F    6.130752   8.600598   0.000000
    39  H    3.632831  10.567308   5.517098   0.000000
    40  H    5.419932  12.083580   6.079237   1.794765   0.000000
    41  H    5.981258  11.242614   4.397775   3.046761   2.376243
    42  H    4.628620   9.969052   4.569797   2.371026   2.629264
    43  H    6.616031  12.214490   4.582789   4.157347   3.894087
    44  H    6.827222  12.433087   4.685291   3.763696   2.912981
    45  H    5.361355   9.947686   2.485292   4.029658   4.545353
    46  H    6.588772  10.743292   2.392998   4.618489   4.550921
                   41         42         43         44         45
    41  H    0.000000
    42  H    1.772075   0.000000
    43  H    3.742460   4.806126   0.000000
    44  H    2.320287   3.792671   1.772664   0.000000
    45  H    3.695129   4.138019   2.355160   3.061880   0.000000
    46  H    2.944745   3.959985   2.613849   2.423700   1.777535
                   46
    46  H    0.000000
 Stoichiometry    C18H20FN3O4
 Framework group  C1[X(C18H20FN3O4)]
 Deg. of freedom   132
 Full point group                 C1      NOp   1
 Largest Abelian subgroup         C1      NOp   1
 Largest concise Abelian subgroup C1      NOp   1
                         Standard orientation:                         
 ---------------------------------------------------------------------
 Center     Atomic      Atomic             Coordinates (Angstroms)
 Number     Number       Type             X           Y           Z
 ---------------------------------------------------------------------
      1          6           0        5.663100    1.100308    1.576199
      2          1           0        5.283776    2.068185    1.923093
      3          1           0        6.571140    1.286901    0.969814
      4          1           0        5.945995    0.508645    2.453110
      5          7           0        2.674089   -0.821163   -0.608674
      6          6           0        3.570638   -1.721205    0.174802
      7          6           0        4.901662   -0.988343    0.473445
      8          6           0        3.390515    0.250412   -1.318494
      9          6           0        4.090962    1.193233   -0.312921
     10          7           0        4.597483    0.405035    0.841514
     11          6           0        0.089895    2.516305   -1.210543
     12          1           0       -0.219339    2.190642   -2.210064
     13          1           0        0.639205    3.456339   -1.264766
     14          8           0        1.029445    1.544868   -0.629428
     15          8           0       -3.447984   -2.445613    0.326576
     16          8           0       -5.826948   -1.121988    0.451699
     17          8           0       -5.802235    1.151203    0.254887
     18          7           0       -1.752535    1.288175   -0.227728
     19          6           0        0.457039    0.268730   -0.442380
     20          6           0       -0.929806    0.146577   -0.247256
     21          6           0       -1.517732   -1.111107   -0.044177
     22          6           0       -1.128021    2.639482   -0.288652
     23          6           0       -3.089815    1.148309   -0.049987
     24          6           0       -3.730501   -0.048184    0.122243
     25          6           0       -2.977641   -1.304241    0.154371
     26          6           0       -0.691162   -2.236378   -0.030618
     27          6           0        1.304177   -0.861083   -0.433872
     28          6           0       -0.719383    3.119953    1.114131
     29          6           0        0.658004   -2.108812   -0.221740
     30          6           0       -5.185933    0.077314    0.276591
     31          1           0       -1.861524    3.316127   -0.737896
     32          1           0       -3.686476    2.053865   -0.047820
     33          1           0       -1.148736   -3.205406    0.113234
     34          1           0       -0.351049    4.150451    1.061147
     35          1           0       -1.573617    3.085055    1.795681
     36          1           0        0.078384    2.479422    1.496708
     37          1           0       -6.799994   -0.924632    0.546519
     38          9           0        1.445995   -3.240132   -0.236052
     39          1           0        3.363593    1.925165    0.048377
     40          1           0        4.908729    1.719733   -0.841305
     41          1           0        4.134861   -0.222872   -1.969997
     42          1           0        2.697253    0.812705   -1.936614
     43          1           0        5.376765   -1.479239    1.329279
     44          1           0        5.597478   -1.073148   -0.382069
     45          1           0        3.078131   -1.948353    1.121930
     46          1           0        3.764009   -2.658094   -0.356403
 ---------------------------------------------------------------------
 Rotational constants (GHZ):      0.4194116      0.1198956      0.0991464
 Standard basis: LANL2DZ (5D, 7F)
 There are   274 symmetry adapted cartesian basis functions of A   symmetry.
 There are   274 symmetry adapted basis functions of A   symmetry.
   274 basis functions,   730 primitive gaussians,   274 cartesian basis functions
    95 alpha electrons       95 beta electrons
       nuclear repulsion energy      2441.0579775882 Hartrees.
 NAtoms=   46 NActive=   46 NUniq=   46 SFac= 1.00D+00 NAtFMM=   60 NAOKFM=F Big=F
 Integral buffers will be    131072 words long.
 Raffenetti 2 integral format.
 Two-electron integral symmetry is turned on.
 One-electron integrals computed using PRISM.
 PrsmSu:  requested number of processors reduced to:   8 ShMem   1 Linda.
   1 Symmetry operations used in ECPInt.
 ECPInt:  NShTT=   14535 NPrTT=  111473 LenC2=   13015 LenP2D=   55197.
 LDataN:  DoStor=T MaxTD1= 2 Len=   12
 Number of processors reduced to   8 by ecpmxn.
 NBasis=   274 RedAO= T EigKep=  1.61D-04  NBF=   274
 NBsUse=   274 1.00D-06 EigRej= -1.00D+00 NBFU=   274
 ExpMin= 1.15D-01 ExpMax= 1.00D+04 ExpMxC= 3.50D+02 IAcc=3 IRadAn=         5 AccDes= 0.00D+00
 Harris functional with IExCor= 1009 and IRadAn=       5 diagonalized for initial guess.
 HarFok:  IExCor= 1009 AccDes= 0.00D+00 IRadAn=         5 IDoV= 1 UseB2=F ITyADJ=14
 ICtDFT=  3500011 ScaDFX=  1.000000  1.000000  1.000000  1.000000
 FoFCou: FMM=F IPFlag=           0 FMFlag=      100000 FMFlg1=           0
         NFxFlg=           0 DoJE=T BraDBF=F KetDBF=T FulRan=T
         wScrn=  0.000000 ICntrl=     500 IOpCl=  0 I1Cent=   200000004 NGrid=           0
         NMat0=    1 NMatS0=      1 NMatT0=    0 NMatD0=    1 NMtDS0=    0 NMtDT0=    0
 Petite list used in FoFCou.
 Requested convergence on RMS density matrix=1.00D-08 within 128 cycles.
 Requested convergence on MAX density matrix=1.00D-06.
 Requested convergence on             energy=1.00D-06.
 No special actions if energy rises.
 Integral accuracy reduced to 1.0D-05 until final iterations.
 Initial convergence to 1.0D-05 achieved.  Increase integral accuracy.
 SCF Done:  E(RM06) =  -1261.97896496     A.U. after   17 cycles
            NFock= 17  Conv=0.84D-08     -V/T= 2.0049

 **********************************************************************

            Population analysis using the SCF density.

 **********************************************************************

 Orbital symmetries:
       Occupied  (A) (A) (A) (A) (A) (A) (A) (A) (A) (A) (A) (A)
                 (A) (A) (A) (A) (A) (A) (A) (A) (A) (A) (A) (A)
                 (A) (A) (A) (A) (A) (A) (A) (A) (A) (A) (A) (A)
                 (A) (A) (A) (A) (A) (A) (A) (A) (A) (A) (A) (A)
                 (A) (A) (A) (A) (A) (A) (A) (A) (A) (A) (A) (A)
                 (A) (A) (A) (A) (A) (A) (A) (A) (A) (A) (A) (A)
                 (A) (A) (A) (A) (A) (A) (A) (A) (A) (A) (A) (A)
                 (A) (A) (A) (A) (A) (A) (A) (A) (A) (A) (A)
       Virtual   (A) (A) (A) (A) (A) (A) (A) (A) (A) (A) (A) (A)
                 (A) (A) (A) (A) (A) (A) (A) (A) (A) (A) (A) (A)
                 (A) (A) (A) (A) (A) (A) (A) (A) (A) (A) (A) (A)
                 (A) (A) (A) (A) (A) (A) (A) (A) (A) (A) (A) (A)
                 (A) (A) (A) (A) (A) (A) (A) (A) (A) (A) (A) (A)
                 (A) (A) (A) (A) (A) (A) (A) (A) (A) (A) (A) (A)
                 (A) (A) (A) (A) (A) (A) (A) (A) (A) (A) (A) (A)
                 (A) (A) (A) (A) (A) (A) (A) (A) (A) (A) (A) (A)
                 (A) (A) (A) (A) (A) (A) (A) (A) (A) (A) (A) (A)
                 (A) (A) (A) (A) (A) (A) (A) (A) (A) (A) (A) (A)
                 (A) (A) (A) (A) (A) (A) (A) (A) (A) (A) (A) (A)
                 (A) (A) (A) (A) (A) (A) (A) (A) (A) (A) (A) (A)
                 (A) (A) (A) (A) (A) (A) (A) (A) (A) (A) (A) (A)
                 (A) (A) (A) (A) (A) (A) (A) (A) (A) (A) (A) (A)
                 (A) (A) (A) (A) (A) (A) (A) (A) (A) (A) (A)
 The electronic state is 1-A.
 Alpha  occ. eigenvalues --  -24.79742 -19.27733 -19.25945 -19.21462 -19.18519
 Alpha  occ. eigenvalues --  -14.48629 -14.42405 -14.39243 -10.39979 -10.34726
 Alpha  occ. eigenvalues --  -10.34443 -10.34138 -10.33942 -10.33764 -10.33393
 Alpha  occ. eigenvalues --  -10.32990 -10.32820 -10.28835 -10.28365 -10.28153
 Alpha  occ. eigenvalues --  -10.27352 -10.27178 -10.27166 -10.26838 -10.26573
 Alpha  occ. eigenvalues --  -10.26511  -1.25491  -1.13190  -1.11265  -1.04540
 Alpha  occ. eigenvalues --   -1.04279  -1.02952  -0.97697  -0.92835  -0.89127
 Alpha  occ. eigenvalues --   -0.85579  -0.82102  -0.80180  -0.78142  -0.77407
 Alpha  occ. eigenvalues --   -0.74721  -0.73385  -0.69751  -0.68751  -0.67779
 Alpha  occ. eigenvalues --   -0.66450  -0.65056  -0.63377  -0.60253  -0.59359
 Alpha  occ. eigenvalues --   -0.57670  -0.56296  -0.55461  -0.53629  -0.53056
 Alpha  occ. eigenvalues --   -0.52626  -0.50730  -0.50567  -0.49984  -0.49380
 Alpha  occ. eigenvalues --   -0.48928  -0.48698  -0.47923  -0.47612  -0.46713
 Alpha  occ. eigenvalues --   -0.46129  -0.45709  -0.44364  -0.44032  -0.43427
 Alpha  occ. eigenvalues --   -0.43222  -0.42953  -0.42517  -0.41860  -0.41184
 Alpha  occ. eigenvalues --   -0.40745  -0.39948  -0.39496  -0.39259  -0.39056
 Alpha  occ. eigenvalues --   -0.38204  -0.37629  -0.37534  -0.36942  -0.35865
 Alpha  occ. eigenvalues --   -0.35560  -0.33554  -0.32583  -0.30618  -0.29092
 Alpha  occ. eigenvalues --   -0.27780  -0.24299  -0.23777  -0.21681  -0.21136
 Alpha virt. eigenvalues --   -0.05327  -0.03941   0.00668   0.03230   0.04828
 Alpha virt. eigenvalues --    0.08906   0.09703   0.09975   0.10520   0.10954
 Alpha virt. eigenvalues --    0.11597   0.11976   0.12535   0.13373   0.13694
 Alpha virt. eigenvalues --    0.14019   0.14776   0.15041   0.15653   0.15757
 Alpha virt. eigenvalues --    0.16572   0.16647   0.17122   0.17586   0.18069
 Alpha virt. eigenvalues --    0.18903   0.19062   0.19376   0.19651   0.20008
 Alpha virt. eigenvalues --    0.20842   0.21096   0.21615   0.22118   0.22390
 Alpha virt. eigenvalues --    0.23033   0.23109   0.23411   0.23640   0.24256
 Alpha virt. eigenvalues --    0.25351   0.26313   0.26644   0.27418   0.27582
 Alpha virt. eigenvalues --    0.27810   0.28250   0.28818   0.29337   0.29566
 Alpha virt. eigenvalues --    0.29883   0.30620   0.31223   0.31723   0.32261
 Alpha virt. eigenvalues --    0.32885   0.33643   0.34075   0.34442   0.34983
 Alpha virt. eigenvalues --    0.35395   0.35522   0.36149   0.36441   0.37324
 Alpha virt. eigenvalues --    0.38027   0.38733   0.39243   0.39584   0.39739
 Alpha virt. eigenvalues --    0.41015   0.41390   0.41761   0.42357   0.42598
 Alpha virt. eigenvalues --    0.43564   0.44132   0.44912   0.45194   0.45930
 Alpha virt. eigenvalues --    0.46125   0.46796   0.47500   0.47657   0.48437
 Alpha virt. eigenvalues --    0.50376   0.50513   0.50995   0.51547   0.52620
 Alpha virt. eigenvalues --    0.53083   0.54315   0.55404   0.55900   0.57126
 Alpha virt. eigenvalues --    0.58147   0.59513   0.60440   0.61388   0.61730
 Alpha virt. eigenvalues --    0.62816   0.65141   0.66923   0.67814   0.68920
 Alpha virt. eigenvalues --    0.69950   0.70745   0.72442   0.72703   0.73979
 Alpha virt. eigenvalues --    0.74496   0.75458   0.76593   0.78377   0.81393
 Alpha virt. eigenvalues --    0.83716   0.85386   0.86427   0.87850   0.88778
 Alpha virt. eigenvalues --    0.89458   0.90401   0.91483   0.91732   0.93351
 Alpha virt. eigenvalues --    0.94850   0.95469   0.98740   0.99708   1.00975
 Alpha virt. eigenvalues --    1.01709   1.02480   1.03239   1.03789   1.05286
 Alpha virt. eigenvalues --    1.05865   1.06611   1.07250   1.07917   1.08817
 Alpha virt. eigenvalues --    1.09437   1.10941   1.11372   1.12602   1.12907
 Alpha virt. eigenvalues --    1.14778   1.15110   1.15890   1.16969   1.18036
 Alpha virt. eigenvalues --    1.19721   1.20054   1.22608   1.22953   1.25750
 Alpha virt. eigenvalues --    1.27469   1.28963   1.29847   1.34585   1.35287
 Alpha virt. eigenvalues --    1.41436   1.42151   1.44651   1.46795   1.48836
 Alpha virt. eigenvalues --    1.52094   1.56602   1.57353   1.61173   1.63319
 Alpha virt. eigenvalues --    1.65303   1.78554   1.83492   1.85591   1.94744
 Alpha virt. eigenvalues --    1.98154   2.01303   2.09806   2.25759
          Condensed to atoms (all electrons):
               1          2          3          4          5          6
     1  C    5.366752   0.370490   0.352596   0.371078  -0.000145   0.005653
     2  H    0.370490   0.490914  -0.036046  -0.014734   0.000019  -0.000430
     3  H    0.352596  -0.036046   0.587856  -0.031284   0.000017  -0.000096
     4  H    0.371078  -0.014734  -0.031284   0.491368   0.000044  -0.000010
     5  N   -0.000145   0.000019   0.000017   0.000044   6.861233   0.273363
     6  C    0.005653  -0.000430  -0.000096  -0.000010   0.273363   5.284428
     7  C   -0.068408   0.005192  -0.004476  -0.002866  -0.080235   0.240365
     8  C    0.006493   0.000182   0.000236  -0.000392   0.278226  -0.058109
     9  C   -0.074008   0.001369  -0.005922   0.004797  -0.065902  -0.005329
    10  N    0.263605  -0.038304  -0.063240  -0.037823   0.000605  -0.059184
    11  C    0.000000   0.000001   0.000000   0.000000  -0.000012  -0.000076
    12  H    0.000000   0.000000   0.000000   0.000000  -0.000006   0.000002
    13  H    0.000000   0.000000   0.000000   0.000000   0.000007   0.000000
    14  O    0.000024   0.000001   0.000000   0.000000   0.003265  -0.000338
    15  O    0.000000   0.000000   0.000000   0.000000   0.000000   0.000000
    16  O    0.000000   0.000000   0.000000   0.000000   0.000000   0.000000
    17  O    0.000000   0.000000   0.000000   0.000000   0.000000   0.000000
    18  N    0.000000   0.000000   0.000000   0.000000  -0.000029  -0.000002
    19  C    0.000031  -0.000008   0.000002   0.000001  -0.046430   0.007974
    20  C    0.000000   0.000000   0.000000   0.000000  -0.001910   0.000768
    21  C    0.000000   0.000000   0.000000   0.000000   0.002335  -0.000124
    22  C    0.000000   0.000000   0.000000   0.000000  -0.000151   0.000013
    23  C    0.000000   0.000000   0.000000   0.000000   0.000004   0.000000
    24  C    0.000000   0.000000   0.000000   0.000000  -0.000004   0.000000
    25  C    0.000000   0.000000   0.000000   0.000000   0.000085   0.000005
    26  C    0.000000   0.000000   0.000000   0.000000   0.009043  -0.002761
    27  C   -0.000288   0.000003   0.000012  -0.000008   0.183409  -0.050701
    28  C    0.000000   0.000000   0.000000   0.000000   0.000010   0.000000
    29  C    0.000007   0.000000   0.000000   0.000000  -0.009579  -0.021886
    30  C    0.000000   0.000000   0.000000   0.000000   0.000000   0.000000
    31  H    0.000000   0.000000   0.000000   0.000000   0.000000   0.000000
    32  H    0.000000   0.000000   0.000000   0.000000   0.000000   0.000000
    33  H    0.000000   0.000000   0.000000   0.000000  -0.000048   0.000037
    34  H    0.000000   0.000000   0.000000   0.000000   0.000000   0.000000
    35  H    0.000000   0.000000   0.000000   0.000000   0.000000   0.000000
    36  H    0.000000   0.000000   0.000000   0.000000   0.000015   0.000008
    37  H    0.000000   0.000000   0.000000   0.000000   0.000000   0.000000
    38  F    0.000001   0.000000   0.000000   0.000000   0.001674   0.015919
    39  H   -0.003507   0.001879  -0.000785   0.000023  -0.001275  -0.001796
    40  H    0.001758  -0.002406   0.010695  -0.000044   0.005906   0.000673
    41  H    0.000143   0.000001  -0.000013  -0.000001  -0.051271  -0.006825
    42  H   -0.000172   0.000001   0.000004   0.000001  -0.028590   0.005864
    43  H   -0.004982   0.000259  -0.001573   0.004124   0.003659  -0.019281
    44  H    0.002005  -0.000264   0.005072  -0.000512  -0.003311  -0.052398
    45  H    0.000279  -0.000008   0.000005  -0.000035  -0.046482   0.383883
    46  H   -0.000210   0.000001   0.000012  -0.000006  -0.043205   0.356636
               7          8          9         10         11         12
     1  C   -0.068408   0.006493  -0.074008   0.263605   0.000000   0.000000
     2  H    0.005192   0.000182   0.001369  -0.038304   0.000001   0.000000
     3  H   -0.004476   0.000236  -0.005922  -0.063240   0.000000   0.000000
     4  H   -0.002866  -0.000392   0.004797  -0.037823   0.000000   0.000000
     5  N   -0.080235   0.278226  -0.065902   0.000605  -0.000012  -0.000006
     6  C    0.240365  -0.058109  -0.005329  -0.059184  -0.000076   0.000002
     7  C    5.453450  -0.002606  -0.088289   0.284673   0.000011   0.000000
     8  C   -0.002606   5.396870   0.234151  -0.069087  -0.001741   0.000173
     9  C   -0.088289   0.234151   5.414985   0.312392   0.001035  -0.000043
    10  N    0.284673  -0.069087   0.312392   6.754312  -0.000025   0.000000
    11  C    0.000011  -0.001741   0.001035  -0.000025   5.393561   0.340397
    12  H    0.000000   0.000173  -0.000043   0.000000   0.340397   0.537177
    13  H    0.000000  -0.000236   0.000151   0.000000   0.346722  -0.034101
    14  O   -0.000037  -0.013115  -0.004282   0.000123   0.279258  -0.045856
    15  O    0.000000   0.000000   0.000000   0.000000   0.000000   0.000000
    16  O    0.000000   0.000000   0.000000   0.000000   0.000000   0.000000
    17  O    0.000000   0.000000   0.000000   0.000000  -0.000001   0.000000
    18  N    0.000000  -0.000007  -0.000015   0.000000  -0.052039  -0.010814
    19  C   -0.001186  -0.020453  -0.003854   0.002815  -0.070373  -0.006104
    20  C   -0.000114  -0.003568  -0.000656   0.000140   0.001347   0.018131
    21  C   -0.000023  -0.000291   0.000014   0.000006  -0.003402   0.002018
    22  C   -0.000001   0.000288  -0.000148   0.000010   0.213848  -0.040915
    23  C    0.000000  -0.000005  -0.000001   0.000000  -0.005745  -0.001099
    24  C    0.000000   0.000001   0.000000   0.000000  -0.000941  -0.000134
    25  C    0.000000  -0.000009   0.000000   0.000000  -0.000388   0.000062
    26  C    0.000081   0.000929   0.000052  -0.000018   0.000493  -0.000033
    27  C    0.004822  -0.044012  -0.007102  -0.000297  -0.002722   0.000110
    28  C    0.000000  -0.000104   0.000058  -0.000004  -0.073630   0.006181
    29  C    0.000585   0.007277  -0.000324  -0.000144  -0.000392  -0.000053
    30  C    0.000000   0.000000   0.000000   0.000000  -0.000009   0.000001
    31  H    0.000000   0.000002   0.000001   0.000000  -0.030354  -0.000139
    32  H    0.000000   0.000000   0.000000   0.000000   0.000428   0.000046
    33  H    0.000000   0.000002   0.000000   0.000000  -0.000003   0.000000
    34  H    0.000000  -0.000001   0.000000   0.000000  -0.002225   0.000035
    35  H    0.000000   0.000000   0.000000   0.000000   0.005500  -0.000059
    36  H   -0.000001  -0.000005   0.000026   0.000000  -0.008254   0.000197
    37  H    0.000000   0.000000   0.000000   0.000000   0.000000   0.000000
    38  F    0.001013   0.000062  -0.000035   0.000002   0.000000   0.000000
    39  H    0.008694  -0.029740   0.376445  -0.046679   0.000472   0.000017
    40  H   -0.010014  -0.029310   0.330950  -0.067751  -0.000029   0.000001
    41  H    0.006438   0.369195  -0.057173  -0.001883  -0.000026   0.000002
    42  H   -0.000505   0.365899  -0.023826   0.002525   0.000421  -0.000014
    43  H    0.369088  -0.000245   0.006033  -0.038373   0.000000   0.000000
    44  H    0.350133   0.006359  -0.000561  -0.068885   0.000000   0.000000
    45  H   -0.042500   0.005676  -0.000645  -0.000094   0.000000   0.000000
    46  H   -0.038285  -0.004873  -0.000021   0.004465  -0.000001   0.000000
              13         14         15         16         17         18
     1  C    0.000000   0.000024   0.000000   0.000000   0.000000   0.000000
     2  H    0.000000   0.000001   0.000000   0.000000   0.000000   0.000000
     3  H    0.000000   0.000000   0.000000   0.000000   0.000000   0.000000
     4  H    0.000000   0.000000   0.000000   0.000000   0.000000   0.000000
     5  N    0.000007   0.003265   0.000000   0.000000   0.000000  -0.000029
     6  C    0.000000  -0.000338   0.000000   0.000000   0.000000  -0.000002
     7  C    0.000000  -0.000037   0.000000   0.000000   0.000000   0.000000
     8  C   -0.000236  -0.013115   0.000000   0.000000   0.000000  -0.000007
     9  C    0.000151  -0.004282   0.000000   0.000000   0.000000  -0.000015
    10  N    0.000000   0.000123   0.000000   0.000000   0.000000   0.000000
    11  C    0.346722   0.279258   0.000000   0.000000  -0.000001  -0.052039
    12  H   -0.034101  -0.045856   0.000000   0.000000   0.000000  -0.010814
    13  H    0.514509  -0.039508   0.000000   0.000000   0.000000   0.005317
    14  O   -0.039508   8.104060   0.000000   0.000000   0.000000  -0.006680
    15  O    0.000000   0.000000   7.787906  -0.006351   0.000010   0.000274
    16  O    0.000000   0.000000  -0.006351   8.081253  -0.083896   0.000006
    17  O    0.000000   0.000000   0.000010  -0.083896   7.889783   0.000898
    18  N    0.005317  -0.006680   0.000274   0.000006   0.000898   6.765101
    19  C    0.002167   0.271217  -0.000190  -0.000004  -0.000022  -0.065715
    20  C   -0.003556  -0.039448  -0.008940  -0.000397  -0.000566   0.188455
    21  C   -0.000161  -0.009453  -0.132786  -0.000900   0.000057  -0.015008
    22  C   -0.018930  -0.045220   0.000002   0.000000   0.000323   0.225201
    23  C    0.000347   0.000159   0.001941  -0.005610   0.008065   0.433848
    24  C    0.000020   0.000180  -0.070306  -0.029539  -0.065277  -0.067007
    25  C   -0.000004  -0.000341   0.674835   0.001794  -0.004330  -0.010601
    26  C    0.000001   0.000468   0.030239   0.000173   0.000028   0.013893
    27  C    0.000197  -0.083561   0.000091   0.000000   0.000000  -0.010129
    28  C   -0.004667  -0.019357   0.000000   0.000000   0.000002  -0.078935
    29  C    0.000013   0.000040   0.001818   0.000001   0.000000   0.000973
    30  C    0.000000   0.000000  -0.007663   0.250520   0.588695   0.009632
    31  H    0.001506   0.003584   0.000000   0.000000  -0.000006  -0.044869
    32  H   -0.000008  -0.000010  -0.000058   0.000345   0.013141  -0.039565
    33  H    0.000000   0.000002   0.010983   0.000000   0.000000  -0.000064
    34  H    0.000497   0.000008   0.000000   0.000000   0.000000   0.005139
    35  H    0.000045   0.000037   0.000000   0.000000   0.000001  -0.003792
    36  H   -0.000488   0.009995   0.000000   0.000000   0.000000  -0.003179
    37  H    0.000000   0.000000   0.000391   0.244834   0.003272   0.000001
    38  F    0.000000  -0.000009   0.000003   0.000000   0.000000   0.000000
    39  H   -0.000111   0.004811   0.000000   0.000000   0.000000   0.000004
    40  H   -0.000005   0.000015   0.000000   0.000000   0.000000   0.000000
    41  H   -0.000001   0.000247   0.000000   0.000000   0.000000   0.000000
    42  H    0.000004   0.002353   0.000000   0.000000   0.000000   0.000000
    43  H    0.000000   0.000000   0.000000   0.000000   0.000000   0.000000
    44  H    0.000000   0.000000   0.000000   0.000000   0.000000   0.000000
    45  H    0.000000   0.000005   0.000000   0.000000   0.000000   0.000000
    46  H    0.000000  -0.000004   0.000000   0.000000   0.000000   0.000000
              19         20         21         22         23         24
     1  C    0.000031   0.000000   0.000000   0.000000   0.000000   0.000000
     2  H   -0.000008   0.000000   0.000000   0.000000   0.000000   0.000000
     3  H    0.000002   0.000000   0.000000   0.000000   0.000000   0.000000
     4  H    0.000001   0.000000   0.000000   0.000000   0.000000   0.000000
     5  N   -0.046430  -0.001910   0.002335  -0.000151   0.000004  -0.000004
     6  C    0.007974   0.000768  -0.000124   0.000013   0.000000   0.000000
     7  C   -0.001186  -0.000114  -0.000023  -0.000001   0.000000   0.000000
     8  C   -0.020453  -0.003568  -0.000291   0.000288  -0.000005   0.000001
     9  C   -0.003854  -0.000656   0.000014  -0.000148  -0.000001   0.000000
    10  N    0.002815   0.000140   0.000006   0.000010   0.000000   0.000000
    11  C   -0.070373   0.001347  -0.003402   0.213848  -0.005745  -0.000941
    12  H   -0.006104   0.018131   0.002018  -0.040915  -0.001099  -0.000134
    13  H    0.002167  -0.003556  -0.000161  -0.018930   0.000347   0.000020
    14  O    0.271217  -0.039448  -0.009453  -0.045220   0.000159   0.000180
    15  O   -0.000190  -0.008940  -0.132786   0.000002   0.001941  -0.070306
    16  O   -0.000004  -0.000397  -0.000900   0.000000  -0.005610  -0.029539
    17  O   -0.000022  -0.000566   0.000057   0.000323   0.008065  -0.065277
    18  N   -0.065715   0.188455  -0.015008   0.225201   0.433848  -0.067007
    19  C    5.543702   0.348129  -0.180075  -0.002407  -0.007662  -0.001420
    20  C    0.348129   5.698811   0.122943  -0.056541  -0.135747   0.033484
    21  C   -0.180075   0.122943   5.875745   0.006970   0.020229  -0.164573
    22  C   -0.002407  -0.056541   0.006970   5.291278  -0.042728  -0.003062
    23  C   -0.007662  -0.135747   0.020229  -0.042728   5.521127   0.277573
    24  C   -0.001420   0.033484  -0.164573  -0.003062   0.277573   5.916484
    25  C   -0.006374  -0.035238   0.056334   0.001116  -0.069535   0.055215
    26  C   -0.116606  -0.182336   0.444150  -0.000116   0.006781  -0.027953
    27  C    0.328432  -0.117560  -0.130263  -0.002262  -0.001241   0.000530
    28  C    0.001538  -0.003151  -0.001123   0.299683  -0.003133  -0.000076
    29  C   -0.171603  -0.101185  -0.103653  -0.000237   0.000516  -0.001532
    30  C   -0.000648  -0.002970  -0.025008   0.001017  -0.016026   0.075412
    31  H    0.001322   0.000896   0.000240   0.329634   0.001839   0.000808
    32  H   -0.000002  -0.006895  -0.000094   0.004202   0.310853  -0.012575
    33  H    0.000633   0.002086  -0.007697   0.000006  -0.000148   0.002809
    34  H   -0.000639   0.000258   0.000014  -0.024040   0.000115  -0.000002
    35  H   -0.000415  -0.000618  -0.000028  -0.029076   0.003067   0.000083
    36  H   -0.000729   0.005545   0.000951  -0.038052  -0.000554  -0.000079
    37  H    0.000000   0.000008   0.000060   0.000000  -0.000429   0.005078
    38  F   -0.000115  -0.001054  -0.002124   0.000000   0.000000  -0.000003
    39  H   -0.001324  -0.000006   0.000005  -0.000166   0.000000   0.000000
    40  H    0.000297   0.000017   0.000000   0.000000   0.000000   0.000000
    41  H    0.001746   0.000109   0.000000  -0.000002   0.000000   0.000000
    42  H    0.007324   0.001092   0.000031   0.000132   0.000003   0.000000
    43  H   -0.000008   0.000000   0.000000   0.000000   0.000000   0.000000
    44  H    0.000096   0.000001   0.000000   0.000000   0.000000   0.000000
    45  H    0.000419   0.000076  -0.000033   0.000000   0.000000   0.000000
    46  H   -0.000090   0.000011   0.000027   0.000000   0.000000   0.000000
              25         26         27         28         29         30
     1  C    0.000000   0.000000  -0.000288   0.000000   0.000007   0.000000
     2  H    0.000000   0.000000   0.000003   0.000000   0.000000   0.000000
     3  H    0.000000   0.000000   0.000012   0.000000   0.000000   0.000000
     4  H    0.000000   0.000000  -0.000008   0.000000   0.000000   0.000000
     5  N    0.000085   0.009043   0.183409   0.000010  -0.009579   0.000000
     6  C    0.000005  -0.002761  -0.050701   0.000000  -0.021886   0.000000
     7  C    0.000000   0.000081   0.004822   0.000000   0.000585   0.000000
     8  C   -0.000009   0.000929  -0.044012  -0.000104   0.007277   0.000000
     9  C    0.000000   0.000052  -0.007102   0.000058  -0.000324   0.000000
    10  N    0.000000  -0.000018  -0.000297  -0.000004  -0.000144   0.000000
    11  C   -0.000388   0.000493  -0.002722  -0.073630  -0.000392  -0.000009
    12  H    0.000062  -0.000033   0.000110   0.006181  -0.000053   0.000001
    13  H   -0.000004   0.000001   0.000197  -0.004667   0.000013   0.000000
    14  O   -0.000341   0.000468  -0.083561  -0.019357   0.000040   0.000000
    15  O    0.674835   0.030239   0.000091   0.000000   0.001818  -0.007663
    16  O    0.001794   0.000173   0.000000   0.000000   0.000001   0.250520
    17  O   -0.004330   0.000028   0.000000   0.000002   0.000000   0.588695
    18  N   -0.010601   0.013893  -0.010129  -0.078935   0.000973   0.009632
    19  C   -0.006374  -0.116606   0.328432   0.001538  -0.171603  -0.000648
    20  C   -0.035238  -0.182336  -0.117560  -0.003151  -0.101185  -0.002970
    21  C    0.056334   0.444150  -0.130263  -0.001123  -0.103653  -0.025008
    22  C    0.001116  -0.000116  -0.002262   0.299683  -0.000237   0.001017
    23  C   -0.069535   0.006781  -0.001241  -0.003133   0.000516  -0.016026
    24  C    0.055215  -0.027953   0.000530  -0.000076  -0.001532   0.075412
    25  C    5.253784  -0.022109   0.002079   0.000264  -0.012796  -0.040139
    26  C   -0.022109   6.043603  -0.192971  -0.000050   0.406757   0.000806
    27  C    0.002079  -0.192971   5.705341   0.001005   0.309237  -0.000016
    28  C    0.000264  -0.000050   0.001005   5.448529   0.000039  -0.000005
    29  C   -0.012796   0.406757   0.309237   0.000039   5.154056   0.000030
    30  C   -0.040139   0.000806  -0.000016  -0.000005   0.000030   4.999817
    31  H   -0.000073   0.000021   0.000034  -0.042644  -0.000002  -0.000003
    32  H    0.003786   0.000057  -0.000006  -0.000536   0.000003  -0.006022
    33  H    0.005338   0.318408  -0.001597   0.000000  -0.046253  -0.000014
    34  H    0.000000   0.000000  -0.000031   0.363294   0.000000   0.000000
    35  H    0.000009   0.000004  -0.000037   0.368958   0.000001   0.000013
    36  H    0.000022   0.000047  -0.000090   0.372467  -0.000051   0.000000
    37  H    0.001855  -0.000004   0.000000   0.000000   0.000000  -0.028741
    38  F    0.000011  -0.064664  -0.049129   0.000000   0.293661   0.000000
    39  H    0.000000  -0.000001   0.001562   0.000045  -0.000045   0.000000
    40  H    0.000000   0.000000   0.000194   0.000000  -0.000007   0.000000
    41  H    0.000000  -0.000035   0.007593   0.000000  -0.000895   0.000000
    42  H    0.000000  -0.000029  -0.010346  -0.000004  -0.000971   0.000000
    43  H    0.000000  -0.000002  -0.000123   0.000000  -0.000066   0.000000
    44  H    0.000000   0.000000   0.000134   0.000000   0.000045   0.000000
    45  H    0.000001   0.000668  -0.002299   0.000000   0.006697   0.000000
    46  H    0.000000  -0.000217   0.003148   0.000000  -0.000542   0.000000
              31         32         33         34         35         36
     1  C    0.000000   0.000000   0.000000   0.000000   0.000000   0.000000
     2  H    0.000000   0.000000   0.000000   0.000000   0.000000   0.000000
     3  H    0.000000   0.000000   0.000000   0.000000   0.000000   0.000000
     4  H    0.000000   0.000000   0.000000   0.000000   0.000000   0.000000
     5  N    0.000000   0.000000  -0.000048   0.000000   0.000000   0.000015
     6  C    0.000000   0.000000   0.000037   0.000000   0.000000   0.000008
     7  C    0.000000   0.000000   0.000000   0.000000   0.000000  -0.000001
     8  C    0.000002   0.000000   0.000002  -0.000001   0.000000  -0.000005
     9  C    0.000001   0.000000   0.000000   0.000000   0.000000   0.000026
    10  N    0.000000   0.000000   0.000000   0.000000   0.000000   0.000000
    11  C   -0.030354   0.000428  -0.000003  -0.002225   0.005500  -0.008254
    12  H   -0.000139   0.000046   0.000000   0.000035  -0.000059   0.000197
[...]
    44  H    0.000099   0.000001   0.000000   0.000000   0.000000   0.000000
    45  H    0.000442   0.000031  -0.000023   0.000000   0.000000   0.000000
    46  H   -0.000258   0.000012   0.000032   0.000000   0.000000   0.000000
              25         26         27         28         29         30
     1  C    0.000000   0.000000  -0.000291   0.000000   0.000012   0.000000
     2  H    0.000000   0.000000   0.000002   0.000000   0.000000   0.000000
     3  H    0.000000   0.000000   0.000011   0.000000   0.000000   0.000000
     4  H    0.000000   0.000000  -0.000008   0.000000   0.000000   0.000000
     5  N    0.000076   0.008787   0.187021   0.000021  -0.005998   0.000000
     6  C    0.000002  -0.002821  -0.054119   0.000000  -0.018910   0.000000
     7  C    0.000000   0.000026   0.006357   0.000000  -0.000385   0.000000
     8  C   -0.000008   0.000982  -0.046732  -0.000091   0.005902   0.000000
     9  C    0.000001   0.000033  -0.006834   0.000039  -0.000451   0.000000
    10  N    0.000000  -0.000016  -0.000304   0.000000  -0.000107   0.000000
    11  C   -0.000335   0.000473  -0.002004  -0.071987  -0.000416  -0.000005
    12  H    0.000051  -0.000046   0.000367   0.006478  -0.000028   0.000001
    13  H   -0.000004   0.000001   0.000147  -0.005466   0.000012   0.000000
    14  O   -0.000330   0.000497  -0.083047  -0.014180   0.000143   0.000000
    15  O    0.671541   0.030053   0.000073   0.000000   0.001805  -0.007694
    16  O    0.003645   0.000141   0.000000   0.000000   0.000001   0.257033
    17  O   -0.004072   0.000025   0.000000   0.000004   0.000000   0.589874
    18  N   -0.010821   0.013446  -0.009657  -0.081657   0.000974   0.009342
    19  C   -0.005265  -0.108089   0.323544   0.000022  -0.172157  -0.000564
    20  C   -0.031001  -0.176473  -0.113992  -0.002689  -0.094755  -0.001931
    21  C    0.052888   0.441155  -0.124376  -0.000723  -0.097517  -0.025483
    22  C    0.000908  -0.000104  -0.002878   0.300680  -0.000241   0.000979
    23  C   -0.072733   0.006272  -0.001285  -0.004325   0.000497  -0.014835
    24  C    0.054638  -0.023603   0.000453  -0.000177  -0.001245   0.074623
    25  C    5.268427  -0.026857   0.001671   0.000296  -0.013022  -0.040739
    26  C   -0.026857   6.014607  -0.187186  -0.000048   0.410795   0.000605
    27  C    0.001671  -0.187186   5.716133   0.000890   0.292235  -0.000011
    28  C    0.000296  -0.000048   0.000890   5.449163   0.000032   0.000013
    29  C   -0.013022   0.410795   0.292235   0.000032   5.134092   0.000020
    30  C   -0.040739   0.000605  -0.000011   0.000013   0.000020   4.991605
    31  H   -0.000062   0.000021   0.000026  -0.044527  -0.000002  -0.000008
    32  H    0.003576   0.000067  -0.000007  -0.001080   0.000003  -0.005560
    33  H    0.005652   0.320164  -0.000885   0.000000  -0.042083  -0.000013
    34  H    0.000000   0.000000  -0.000026   0.363746   0.000000   0.000000
    35  H    0.000012   0.000003  -0.000034   0.368744   0.000001   0.000017
    36  H    0.000023   0.000046  -0.000060   0.372132  -0.000048   0.000000
    37  H    0.001447  -0.000004   0.000000   0.000000   0.000000  -0.029053
    38  F   -0.000010  -0.063063  -0.049666   0.000000   0.292645   0.000000
    39  H    0.000000   0.000000   0.001145   0.000010  -0.000029   0.000000
    40  H    0.000000   0.000000   0.000160   0.000000  -0.000004   0.000000
    41  H    0.000000  -0.000037   0.007864   0.000000  -0.000822   0.000000
    42  H    0.000000  -0.000026  -0.011176  -0.000003  -0.001124   0.000000
    43  H    0.000000  -0.000001  -0.000130   0.000000  -0.000044   0.000000
    44  H    0.000000   0.000000   0.000084   0.000000   0.000045   0.000000
    45  H    0.000001   0.000743  -0.003477   0.000000   0.006808   0.000000
    46  H    0.000000  -0.000122   0.001546   0.000000   0.000863   0.000000
              31         32         33         34         35         36
     1  C    0.000000   0.000000   0.000000   0.000000   0.000000   0.000000
     2  H    0.000000   0.000000   0.000000   0.000000   0.000000   0.000000
     3  H    0.000000   0.000000   0.000000   0.000000   0.000000   0.000000
     4  H    0.000000   0.000000   0.000000   0.000000   0.000000   0.000000
     5  N    0.000000   0.000000  -0.000053   0.000000   0.000000   0.000009
     6  C    0.000000   0.000000   0.000039   0.000000   0.000000   0.000007
     7  C    0.000000   0.000000   0.000000   0.000000   0.000000  -0.000001
     8  C    0.000002   0.000000   0.000002  -0.000001   0.000000  -0.000006
     9  C    0.000000   0.000000   0.000000   0.000001   0.000000   0.000025
    10  N    0.000000   0.000000   0.000000   0.000000   0.000000   0.000000
    11  C   -0.030840   0.000490  -0.000002  -0.002465   0.005413  -0.007385
    12  H   -0.000135   0.000042   0.000000   0.000047  -0.000060   0.000150
    13  H    0.001398  -0.000008   0.000000   0.000520   0.000053  -0.000392
    14  O    0.003578  -0.000009   0.000002   0.000004  -0.000002   0.007702
    15  O    0.000000  -0.000056   0.009495   0.000000   0.000000   0.000000
    16  O    0.000000   0.000320   0.000000   0.000000   0.000000   0.000000
    17  O   -0.000005   0.012488   0.000000   0.000000   0.000002   0.000000
    18  N   -0.046565  -0.040613  -0.000063   0.005399  -0.004216  -0.003490
    19  C    0.001250  -0.000085   0.000603  -0.000556  -0.000362  -0.000643
    20  C    0.000770  -0.006889   0.001236   0.000181  -0.000790   0.005507
    21  C    0.000243   0.000239  -0.011674   0.000011  -0.000039   0.000931
    22  C    0.332507   0.004592   0.000006  -0.024169  -0.028197  -0.036310
    23  C    0.001326   0.311384  -0.000131   0.000094   0.004084  -0.000740
    24  C    0.000901  -0.012354   0.002497  -0.000003   0.000128  -0.000088
    25  C   -0.000062   0.003576   0.005652   0.000000   0.000012   0.000023
    26  C    0.000021   0.000067   0.320164   0.000000   0.000003   0.000046
    27  C    0.000026  -0.000007  -0.000885  -0.000026  -0.000034  -0.000060
    28  C   -0.044527  -0.001080   0.000000   0.363746   0.368744   0.372132
    29  C   -0.000002   0.000003  -0.042083   0.000000   0.000001  -0.000048
    30  C   -0.000008  -0.005560  -0.000013   0.000000   0.000017   0.000000
    31  H    0.546809   0.001893   0.000000  -0.002351  -0.003274   0.003454
    32  H    0.001893   0.454963   0.000000   0.000025  -0.000439   0.000026
    33  H    0.000000   0.000000   0.417465   0.000000   0.000000   0.000000
    34  H   -0.002351   0.000025   0.000000   0.481868  -0.018776  -0.018921
    35  H   -0.003274  -0.000439   0.000000  -0.018776   0.467557  -0.019600
    36  H    0.003454   0.000026   0.000000  -0.018921  -0.019600   0.452657
    37  H    0.000000   0.000001   0.000000   0.000000   0.000000   0.000000
    38  F    0.000000   0.000000   0.000194   0.000000   0.000000   0.000000
    39  H    0.000000   0.000000   0.000000   0.000000   0.000000  -0.000002
    40  H    0.000000   0.000000   0.000000   0.000000   0.000000   0.000000
    41  H    0.000000   0.000000   0.000000   0.000000   0.000000   0.000000
    42  H    0.000000   0.000000   0.000000   0.000000   0.000000   0.000000
    43  H    0.000000   0.000000   0.000000   0.000000   0.000000   0.000000
    44  H    0.000000   0.000000   0.000000   0.000000   0.000000   0.000000
    45  H    0.000000   0.000000   0.000001   0.000000   0.000000   0.000000
    46  H    0.000000   0.000000   0.000000   0.000000   0.000000   0.000000
              37         38         39         40         41         42
     1  C    0.000000   0.000000  -0.005080   0.003342   0.000001  -0.000144
     2  H    0.000000   0.000000   0.002364  -0.002633   0.000002   0.000000
     3  H    0.000000   0.000000  -0.000880   0.011039  -0.000006   0.000003
     4  H    0.000000   0.000000   0.000053  -0.000084   0.000000   0.000001
     5  N    0.000000   0.001179  -0.000991   0.005529  -0.056325  -0.027803
     6  C    0.000000   0.014651  -0.001572   0.000732  -0.005785   0.005836
     7  C    0.000000   0.000801   0.008898  -0.010765   0.004803  -0.000513
     8  C    0.000000   0.000002  -0.027301  -0.031223   0.375253   0.367962
     9  C    0.000000  -0.000030   0.377496   0.333617  -0.058410  -0.023496
    10  N    0.000000   0.000001  -0.045651  -0.074316  -0.001443   0.002522
    11  C    0.000000   0.000000   0.000685  -0.000041  -0.000025   0.000352
    12  H    0.000000   0.000000   0.000016   0.000001   0.000002  -0.000047
    13  H    0.000000   0.000000  -0.000103  -0.000002  -0.000001   0.000006
    14  O    0.000000  -0.000009   0.003041   0.000031   0.000196   0.002475
    15  O    0.000316   0.000003   0.000000   0.000000   0.000000   0.000000
    16  O    0.249150   0.000000   0.000000   0.000000   0.000000   0.000000
    17  O    0.003078   0.000000   0.000000   0.000000   0.000000   0.000000
    18  N    0.000001   0.000000   0.000002   0.000000   0.000000   0.000001
    19  C    0.000000   0.000337  -0.001043   0.000318   0.001700   0.007903
    20  C    0.000007  -0.001046  -0.000012   0.000013   0.000112   0.001147
    21  C    0.000045  -0.001524   0.000002   0.000000  -0.000001   0.000027
    22  C    0.000000   0.000000  -0.000095   0.000000  -0.000001   0.000125
    23  C   -0.000318   0.000000   0.000000   0.000000   0.000000   0.000003
    24  C    0.005124  -0.000002   0.000000   0.000000   0.000000   0.000000
    25  C    0.001447  -0.000010   0.000000   0.000000   0.000000   0.000000
    26  C   -0.000004  -0.063063   0.000000   0.000000  -0.000037  -0.000026
    27  C    0.000000  -0.049666   0.001145   0.000160   0.007864  -0.011176
    28  C    0.000000   0.000000   0.000010   0.000000   0.000000  -0.000003
    29  C    0.000000   0.292645  -0.000029  -0.000004  -0.000822  -0.001124
    30  C   -0.029053   0.000000   0.000000   0.000000   0.000000   0.000000
    31  H    0.000000   0.000000   0.000000   0.000000   0.000000   0.000000
    32  H    0.000001   0.000000   0.000000   0.000000   0.000000   0.000000
    33  H    0.000000   0.000194   0.000000   0.000000   0.000000   0.000000
    34  H    0.000000   0.000000   0.000000   0.000000   0.000000   0.000000
    35  H    0.000000   0.000000   0.000000   0.000000   0.000000   0.000000
    36  H    0.000000   0.000000  -0.000002   0.000000   0.000000   0.000000
    37  H    0.363624   0.000000   0.000000   0.000000   0.000000   0.000000
    38  F    0.000000   9.071475   0.000000   0.000000   0.000001   0.000000
    39  H    0.000000   0.000000   0.485060  -0.040373   0.003279  -0.005072
    40  H    0.000000   0.000000  -0.040373   0.628938  -0.003192   0.002581
    41  H    0.000000   0.000001   0.003279  -0.003192   0.539893  -0.026293
    42  H    0.000000   0.000000  -0.005072   0.002581  -0.026293   0.461415
    43  H    0.000000   0.000002  -0.000017  -0.000296   0.000143  -0.000006
    44  H    0.000000   0.000002  -0.000369   0.006318  -0.001681   0.000165
    45  H    0.000000  -0.003869   0.000031   0.000005  -0.000026  -0.000094
    46  H    0.000000  -0.002106  -0.000009   0.000074   0.001735  -0.000031
              43         44         45         46
     1  C   -0.004818   0.002102   0.000252  -0.000195
     2  H    0.000261  -0.000286  -0.000007   0.000001
     3  H   -0.001733   0.005836   0.000005   0.000013
     4  H    0.004080  -0.000549  -0.000028  -0.000006
     5  N    0.003670  -0.003337  -0.046632  -0.045719
     6  C   -0.020093  -0.054105   0.385180   0.359674
     7  C    0.371027   0.354906  -0.041741  -0.037980
     8  C   -0.000279   0.005580   0.005979  -0.004670
     9  C    0.006109  -0.000337  -0.000443  -0.000128
    10  N   -0.037454  -0.074121  -0.000537   0.004294
    11  C    0.000000   0.000000   0.000000  -0.000001
    12  H    0.000000   0.000000   0.000000   0.000000
    13  H    0.000000   0.000000   0.000000   0.000000
    14  O    0.000000   0.000000   0.000003  -0.000004
    15  O    0.000000   0.000000   0.000000   0.000000
    16  O    0.000000   0.000000   0.000000   0.000000
    17  O    0.000000   0.000000   0.000000   0.000000
    18  N    0.000000   0.000000   0.000000   0.000000
    19  C   -0.000014   0.000099   0.000442  -0.000258
    20  C    0.000000   0.000001   0.000031   0.000012
    21  C    0.000000   0.000000  -0.000023   0.000032
    22  C    0.000000   0.000000   0.000000   0.000000
    23  C    0.000000   0.000000   0.000000   0.000000
    24  C    0.000000   0.000000   0.000000   0.000000
    25  C    0.000000   0.000000   0.000001   0.000000
    26  C   -0.000001   0.000000   0.000743  -0.000122
    27  C   -0.000130   0.000084  -0.003477   0.001546
    28  C    0.000000   0.000000   0.000000   0.000000
    29  C   -0.000044   0.000045   0.006808   0.000863
    30  C    0.000000   0.000000   0.000000   0.000000
    31  H    0.000000   0.000000   0.000000   0.000000
    32  H    0.000000   0.000000   0.000000   0.000000
    33  H    0.000000   0.000000   0.000001   0.000000
    34  H    0.000000   0.000000   0.000000   0.000000
    35  H    0.000000   0.000000   0.000000   0.000000
    36  H    0.000000   0.000000   0.000000   0.000000
    37  H    0.000000   0.000000   0.000000   0.000000
    38  F    0.000002   0.000002  -0.003869  -0.002106
    39  H   -0.000017  -0.000369   0.000031  -0.000009
    40  H   -0.000296   0.006318   0.000005   0.000074
    41  H    0.000143  -0.001681  -0.000026   0.001735
    42  H   -0.000006   0.000165  -0.000094  -0.000031
    43  H    0.497780  -0.038662  -0.005415   0.000278
    44  H   -0.038662   0.609281   0.003562   0.001120
    45  H   -0.005415   0.003562   0.500143  -0.025979
    46  H    0.000278   0.001120  -0.025979   0.523683
 Mulliken charges:
               1
     1  C   -0.593380
     2  H    0.219719
     3  H    0.184692
     4  H    0.218056
     5  N   -0.235521
     6  C   -0.301738
     7  C   -0.380925
     8  C   -0.393205
     9  C   -0.339348
    10  N   -0.118441
    11  C   -0.336562
    12  H    0.231152
    13  H    0.228611
    14  O   -0.353892
    15  O   -0.286683
    16  O   -0.451101
    17  O   -0.358880
    18  N   -0.235384
    19  C    0.188085
    20  C    0.258699
    21  C    0.245867
    22  C   -0.072110
    23  C   -0.285715
    24  C    0.077670
    25  C    0.140404
    26  C   -0.660449
    27  C    0.158452
    28  C   -0.635317
    29  C    0.302503
    30  C    0.201785
    31  H    0.233592
    32  H    0.276992
    33  H    0.297550
    34  H    0.215372
    35  H    0.229774
    36  H    0.245014
    37  H    0.406581
    38  F   -0.259967
    39  H    0.246517
    40  H    0.170232
    41  H    0.219063
    42  H    0.243306
    43  H    0.225612
    44  H    0.184347
    45  H    0.225084
    46  H    0.223885
 Sum of Mulliken charges =   0.00000
 Mulliken charges with hydrogens summed into heavy atoms:
               1
     1  C    0.029087
     5  N   -0.235521
     6  C    0.147231
     7  C    0.029034
     8  C    0.069165
     9  C    0.077401
    10  N   -0.118441
    11  C    0.123201
    14  O   -0.353892
    15  O   -0.286683
    16  O   -0.044520
    17  O   -0.358880
    18  N   -0.235384
    19  C    0.188085
    20  C    0.258699
    21  C    0.245867
    22  C    0.161482
    23  C   -0.008723
    24  C    0.077670
    25  C    0.140404
    26  C   -0.362899
    27  C    0.158452
    28  C    0.054844
    29  C    0.302503
    30  C    0.201785
    38  F   -0.259967
 Electronic spatial extent (au):  <R**2>=          10624.4351
 Charge=              0.0000 electrons
 Dipole moment (field-independent basis, Debye):
    X=              6.3905    Y=              6.9595    Z=             -1.5371  Tot=              9.5726
 Quadrupole moment (field-independent basis, Debye-Ang):
   XX=           -154.5456   YY=           -151.7013   ZZ=           -146.9446
   XY=             -6.8479   XZ=              1.1986   YZ=             -3.7252
 Traceless Quadrupole moment (field-independent basis, Debye-Ang):
   XX=             -3.4818   YY=             -0.6375   ZZ=              4.1193
   XY=             -6.8479   XZ=              1.1986   YZ=             -3.7252
 Octapole moment (field-independent basis, Debye-Ang**2):
  XXX=            132.6291  YYY=             81.4076  ZZZ=             -0.7275  XYY=             44.3382
  XXY=            -30.0155  XXZ=              8.4869  XZZ=              5.3770  YZZ=              3.7592
  YYZ=             -5.7781  XYZ=             -6.2890
 Hexadecapole moment (field-independent basis, Debye-Ang**3):
 XXXX=          -9599.0800 YYYY=          -2628.4467 ZZZZ=           -563.5437 XXXY=            329.4043
 XXXZ=             -0.3906 YYYX=            -80.3130 YYYZ=            -22.8372 ZZZX=             -5.9672
 ZZZY=            -14.4900 XXYY=          -2409.2324 XXZZ=          -1763.6105 YYZZ=           -524.3515
 XXYZ=            -21.0980 YYXZ=             35.8820 ZZXY=             -8.9515
 N-N= 2.435633510965D+03 E-N=-7.819835577938D+03  KE= 1.255823506128D+03
 1\1\GINC-NODE045\FOpt\RM06\LANL2DZ\C18H20F1N3O4\SUPERCOMPUTO1\21-Jul-2
 020\0\\#opt M06/lanl2dz integral=ultrafine geom=connectivity\\Title Ca
 rd Required\\0,1\C,5.7212720445,-1.1584310191,-1.4751266435\H,5.391974
 961,-2.176251174,-1.7165631621\H,6.6518344777,-1.2382738061,-0.8743013
 793\H,5.9612359706,-0.6484653459,-2.4149301422\N,2.6841425229,0.807449
 141,0.5457184737\C,3.5708952297,1.6820150348,-0.2483386139\C,4.9027114
 357,0.9611151642,-0.5212250487\C,3.3880426682,-0.2124955846,1.32269488
 95\C,4.174552669,-1.1707767292,0.4118375023\N,4.6527179912,-0.45415000
 83,-0.7798929345\C,0.1221107362,-2.5250509056,1.1083977403\H,-0.147556
 1766,-2.2654241508,2.1418721573\H,0.6763342138,-3.4654219379,1.0923060
 661\O,1.0258491401,-1.5237462243,0.5769968327\O,-3.4910904578,2.451707
 7923,-0.2798237707\O,-5.9019331058,1.0866316867,-0.3496351983\O,-5.820
 3461323,-1.1819190496,-0.2441636408\N,-1.7577200785,-1.2759983336,0.22
 94043334\C,0.4517923966,-0.2558461653,0.433950306\C,-0.9418292786,-0.1
 271266282,0.254865078\C,-1.5402326735,1.134230392,0.0607605416\C,-1.12
 62038067,-2.6149230839,0.2351349427\C,-3.0971291336,-1.1530937745,0.05
 6376054\C,-3.7607268432,0.0472608677,-0.0918276509\C,-3.0046379135,1.3
 085337836,-0.1170706094\C,-0.7091430327,2.2638362756,0.0416816075\C,1.
 3112123502,0.8697218855,0.4067936\C,-0.8033386618,-3.0666613153,-1.190
 7153296\C,0.6479613145,2.1141859206,0.2121056621\C,-5.2197385012,-0.08
 74248127,-0.2335459491\H,-1.8351399227,-3.3097732225,0.7026699427\H,-3
 .6766516237,-2.0749368612,0.0368171092\H,-1.1573539493,3.2450568336,-0
 .0811676003\H,-0.3946322263,-4.0831766068,-1.1849948286\H,-1.706046658
 6,-3.0603339399,-1.8104828839\H,-0.0621079161,-2.400343681,-1.64466341
 86\H,-6.862873334,0.9016422486,-0.4393105323\F,1.4240432619,3.26862210
 42,0.2587044196\H,3.5348555664,-2.0032210085,0.0935143117\H,5.02283104
 33,-1.5894877852,0.9963011799\H,4.0792674756,0.3070347624,2.0037857453
 \H,2.6831898978,-0.7715619999,1.937557342\H,5.3623619929,1.413053137,-
 1.4079149348\H,5.6135870955,1.1176493714,0.3188055534\H,3.0766442957,1
 .891292814,-1.2039281924\H,3.7569026754,2.6401299384,0.2546770728\\Ver
 sion=ES64L-G09RevD.01\State=1-A\HF=-1261.982386\RMSD=3.827e-09\RMSF=2.
 072e-06\Dipole=2.507271,-2.7530352,0.5642932\Quadrupole=-2.5621788,-0.
 4287822,2.990961,5.1042592,-0.8225148,-2.8214186\PG=C01 [X(C18H20F1N3O
 4)]\\@


 IF YOU BELIEVE CERTAIN WORDS, YOU BELIEVE THEIR HIDDEN ARGUMENTS.
 WHEN YOU BELIEVE SOMETHING IS RIGHT OR WRONG, TRUE OR FALSE, 
 YOU BELIEVE THE ASSUMPTIONS IN THE WORDS WHICH EXPRESS THE ARGUMENTS.
 SUCH ASSUMPTIONS ARE OFTEN FULL OF HOLES, BUT REMAIN MOST PRECIOUS 
 TO THE CONVINCED.

                 -- THE OPEN-ENDED PROOF FROM THE PANOPLIA PROPHETICA
                    CHILDREN OF DUNE BY FRANK HERBERT
 Job cpu time:       0 days  5 hours  1 minutes 17.6 seconds.
 File lengths (MBytes):  RWF=     50 Int=      0 D2E=      0 Chk=      8 Scr=      1
 Normal termination of Gaussian 09 at Tue Jul 21 17:02:28 2020.
