 Entering Gaussian System, Link 0=g09
 Input=gatifloxacina.gjf
 Output=gatifloxacina.log
 Initial command:
 /usr/local/cluster_programs/g09/l1.exe "/tmp/scratch/64508.prometeo/Gau-20648.inp" -scrdir="/tmp/scratch/64508.prometeo/"
 Entering Link 1 = /usr/local/cluster_programs/g09/l1.exe PID=     20649.
  
 Copyright (c) 1988,1990,1992,1993,1995,1998,2003,2009,2013,
            Gaussian, Inc.  All Rights Reserved.
  
 This is part of the Gaussian(R) 09 program.  It is based on
 the Gaussian(R) 03 system (copyright 2003, Gaussian, Inc.),
 the Gaussian(R) 98 system (copyright 1998, Gaussian, Inc.),
 the Gaussian(R) 94 system (copyright 1995, Gaussian, Inc.),
 the Gaussian 92(TM) system (copyright 1992, Gaussian, Inc.),
 the Gaussian 90(TM) system (copyright 1990, Gaussian, Inc.),
 the Gaussian 88(TM) system (copyright 1988, Gaussian, Inc.),
 the Gaussian 86(TM) system (copyright 1986, Carnegie Mellon
 University), and the Gaussian 82(TM) system (copyright 1983,
 Carnegie Mellon University). Gaussian is a federally registered
 trademark of Gaussian, Inc.
  
 This software contains proprietary and confidential information,
 including trade secrets, belonging to Gaussian, Inc.
  
 This software is provided under written license and may be
 used, copied, transmitted, or stored only in accord with that
 written license.
  
 The following legend is applicable only to US Government
 contracts under FAR:
  
                    RESTRICTED RIGHTS LEGEND
  
 Use, reproduction and disclosure by the US Government is
 subject to restrictions as set forth in subparagraphs (a)
 and (c) of the Commercial Computer Software - Restricted
 Rights clause in FAR 52.227-19.
  
 Gaussian, Inc.
 340 Quinnipiac St., Bldg. 40, Wallingford CT 06492
  
  
 ---------------------------------------------------------------
 Warning -- This program may not be used in any manner that
 competes with the business of Gaussian, Inc. or will provide
 assistance to any competitor of Gaussian, Inc.  The licensee
 of this program is prohibited from giving any competitor of
 Gaussian, Inc. access to this program.  By using this program,
 the user acknowledges that Gaussian, Inc. is engaged in the
 business of creating and licensing software in the field of
 computational chemistry and represents and warrants to the
 licensee that it is not a competitor of Gaussian, Inc. and that
 it will not use this program in any manner prohibited above.
 ---------------------------------------------------------------
  

 Cite this work as:
 Gaussian 09, Revision D.01,
 M. J. Frisch, G. W. Trucks, H. B. Schlegel, G. E. Scuseria, 
 M. A. Robb, J. R. Cheeseman, G. Scalmani, V. Barone, B. Mennucci, 
 G. A. Petersson, H. Nakatsuji, M. Caricato, X. Li, H. P. Hratchian, 
 A. F. Izmaylov, J. Bloino, G. Zheng, J. L. Sonnenberg, M. Hada, 
 M. Ehara, K. Toyota, R. Fukuda, J. Hasegawa, M. Ishida, T. Nakajima, 
 Y. Honda, O. Kitao, H. Nakai, T. Vreven, J. A. Montgomery, Jr., 
 J. E. Peralta, F. Ogliaro, M. Bearpark, J. J. Heyd, E. Brothers, 
 K. N. Kudin, V. N. Staroverov, T. Keith, R. Kobayashi, J. Normand, 
 K. Raghavachari, A. Rendell, J. C. Burant, S. S. Iyengar, J. Tomasi, 
 M. Cossi, N. Rega, J. M. Millam, M. Klene, J. E. Knox, J. B. Cross, 
 V. Bakken, C. Adamo, J. Jaramillo, R. Gomperts, R. E. Stratmann, 
 O. Yazyev, A. J. Austin, R. Cammi, C. Pomelli, J. W. Ochterski, 
 R. L. Martin, K. Morokuma, V. G. Zakrzewski, G. A. Voth, 
 P. Salvador, J. J. Dannenberg, S. Dapprich, A. D. Daniels, 
 O. Farkas, J. B. Foresman, J. V. Ortiz, J. Cioslowski, 
 and D. J. Fox, Gaussian, Inc., Wallingford CT, 2013.
 
 ******************************************
 Gaussian 09:  ES64L-G09RevD.01 24-Apr-2013
                12-Aug-2020 
 ******************************************
 %nprocshared=20
 Will use up to   20 processors via shared memory.
 -----------------------------------------------------
 #opt M06/lanl2dz integral=ultrafine geom=connectivity
 -----------------------------------------------------
 1/14=-1,18=20,19=15,26=4,38=1,57=2/1,3;
 2/9=110,12=2,17=6,18=5,40=1/2;
 3/5=6,6=3,11=2,16=1,25=1,30=1,71=1,74=-54,75=-5/1,2,3;
 4//1;
 5/5=2,38=5/2;
 6/7=2,8=2,9=2,10=2,28=1/1;
 7//1,2,3,16;
 1/14=-1,18=20,19=15,26=4/3(2);
 2/9=110/2;
 99//99;
 2/9=110/2;
 3/5=6,6=3,11=2,16=1,25=1,30=1,71=1,74=-54,75=-5/1,2,3;
 4/5=5,16=3,69=1/1;
 5/5=2,38=5/2;
 7//1,2,3,16;
 1/14=-1,18=20,19=15,26=4/3(-5);
 2/9=110/2;
 6/7=2,8=2,9=2,10=2,19=2,28=1/1;
 99/9=1/99;
 -------------------
 Title Card Required
 -------------------
 Symbolic Z-matrix:
 Charge =  0 Multiplicity = 1
 C                     1.42296   2.59271   0.21132 
 C                     0.8038    3.15899  -1.04257 
 C                     2.20883   3.59015  -0.63364 
 H                     2.35084   4.57978  -0.21723 
 H                     3.02905   3.21844  -1.23467 
 H                     0.72576   2.49068  -1.89102 
 H                    -0.02264   3.84487  -0.91174 
 H                     1.03116   2.93834   1.15728 
 N                    -2.69763  -0.65516   0.09472 
 C                    -3.60081  -1.8152    0.32918 
 C                    -4.8947   -1.29387   0.96661 
 N                    -5.51168  -0.32053   0.03858 
 C                    -3.32362   0.38992  -0.77242 
 C                    -4.65157   0.869    -0.16244 
 H                    -6.45305  -0.04929   0.34161 
 H                    -3.10758  -2.51876   0.99909 
 H                    -3.84763  -2.32233  -0.61029 
 H                    -3.53376  -0.02866  -1.76762 
 H                    -2.6314    1.22692  -0.84029 
 H                    -4.41684   1.37734   0.79147 
 H                    -5.58578  -2.13051   1.11243 
 H                    -4.64547  -0.8586    1.95208 
 O                     3.37017  -2.62407  -0.40511 
 O                     5.82332  -1.50056  -0.01282 
 O                     5.92466   0.75021   0.34913 
 N                     1.86133   1.19123   0.21053 
 C                    -0.43623   0.24268   0.21089 
 C                     0.96243   0.10717   0.0803 
 C                     1.50146  -1.17315  -0.15952 
 C                     3.19808   0.93843   0.23314 
 C                     3.78043  -0.28747   0.07066 
 C                     2.96406  -1.46581  -0.18831 
 C                     0.64252  -2.25524  -0.35148 
 C                    -1.30898  -0.84358  -0.01461 
 C                    -0.7166   -2.08783  -0.31917 
 C                     5.24709  -0.26662   0.15178 
 H                     3.8475    1.79076   0.38268 
 H                     6.81034  -1.37634   0.05838 
 F                    -1.52918  -3.17262  -0.57193 
 C                    -5.3552    1.84437  -1.11705 
 H                    -5.59189   1.32525  -2.05082 
 H                    -4.71729   2.70843  -1.33165 
 H                    -6.29029   2.20897  -0.6755 
 O                    -0.97996   1.48512   0.58817 
 C                    -1.47249   1.49169   1.99463 
 H                    -2.24617   0.73274   2.11783 
 H                    -1.8849    2.49028   2.14527 
 H                    -0.64345   1.31319   2.6871 
 H                     1.08761  -3.22034  -0.55254 
 

 GradGradGradGradGradGradGradGradGradGradGradGradGradGradGradGradGradGrad
 Berny optimization.
 Initialization pass.
                           ----------------------------
                           !    Initial Parameters    !
                           ! (Angstroms and Degrees)  !
 --------------------------                            --------------------------
 ! Name  Definition              Value          Derivative Info.                !
 --------------------------------------------------------------------------------
 ! R1    R(1,2)                  1.5087         estimate D2E/DX2                !
 ! R2    R(1,3)                  1.5253         estimate D2E/DX2                !
 ! R3    R(1,8)                  1.0806         estimate D2E/DX2                !
 ! R4    R(1,26)                 1.4684         estimate D2E/DX2                !
 ! R5    R(2,3)                  1.5255         estimate D2E/DX2                !
 ! R6    R(2,6)                  1.0829         estimate D2E/DX2                !
 ! R7    R(2,7)                  1.0819         estimate D2E/DX2                !
 ! R8    R(3,4)                  1.083          estimate D2E/DX2                !
 ! R9    R(3,5)                  1.0827         estimate D2E/DX2                !
 ! R10   R(9,10)                 1.4888         estimate D2E/DX2                !
 ! R11   R(9,13)                 1.4953         estimate D2E/DX2                !
 ! R12   R(9,34)                 1.4056         estimate D2E/DX2                !
 ! R13   R(10,11)                1.5337         estimate D2E/DX2                !
 ! R14   R(10,16)                1.0895         estimate D2E/DX2                !
 ! R15   R(10,17)                1.0958         estimate D2E/DX2                !
 ! R16   R(11,12)                1.4796         estimate D2E/DX2                !
 ! R17   R(11,21)                1.0949         estimate D2E/DX2                !
 ! R18   R(11,22)                1.1058         estimate D2E/DX2                !
 ! R19   R(12,14)                1.4816         estimate D2E/DX2                !
 ! R20   R(12,15)                1.0255         estimate D2E/DX2                !
 ! R21   R(13,14)                1.5379         estimate D2E/DX2                !
 ! R22   R(13,18)                1.0999         estimate D2E/DX2                !
 ! R23   R(13,19)                1.0883         estimate D2E/DX2                !
 ! R24   R(14,20)                1.1061         estimate D2E/DX2                !
 ! R25   R(14,40)                1.5355         estimate D2E/DX2                !
 ! R26   R(23,32)                1.2464         estimate D2E/DX2                !
 ! R27   R(24,36)                1.3718         estimate D2E/DX2                !
 ! R28   R(24,38)                0.9973         estimate D2E/DX2                !
 ! R29   R(25,36)                1.2377         estimate D2E/DX2                !
 ! R30   R(26,28)                1.4143         estimate D2E/DX2                !
 ! R31   R(26,30)                1.3606         estimate D2E/DX2                !
 ! R32   R(27,28)                1.4113         estimate D2E/DX2                !
 ! R33   R(27,34)                1.4116         estimate D2E/DX2                !
 ! R34   R(27,44)                1.4077         estimate D2E/DX2                !
 ! R35   R(28,29)                1.4097         estimate D2E/DX2                !
 ! R36   R(29,32)                1.4919         estimate D2E/DX2                !
 ! R37   R(29,33)                1.3948         estimate D2E/DX2                !
 ! R38   R(30,31)                1.3669         estimate D2E/DX2                !
 ! R39   R(30,37)                1.0819         estimate D2E/DX2                !
 ! R40   R(31,32)                1.4567         estimate D2E/DX2                !
 ! R41   R(31,36)                1.469          estimate D2E/DX2                !
 ! R42   R(33,35)                1.3698         estimate D2E/DX2                !
 ! R43   R(33,49)                1.0816         estimate D2E/DX2                !
 ! R44   R(34,35)                1.4113         estimate D2E/DX2                !
 ! R45   R(35,39)                1.3787         estimate D2E/DX2                !
 ! R46   R(40,41)                1.0943         estimate D2E/DX2                !
 ! R47   R(40,42)                1.0953         estimate D2E/DX2                !
 ! R48   R(40,43)                1.0965         estimate D2E/DX2                !
 ! R49   R(44,45)                1.4902         estimate D2E/DX2                !
 ! R50   R(45,46)                1.0908         estimate D2E/DX2                !
 ! R51   R(45,47)                1.0908         estimate D2E/DX2                !
 ! R52   R(45,48)                1.0948         estimate D2E/DX2                !
 ! A1    A(2,1,8)              117.3011         estimate D2E/DX2                !
 ! A2    A(2,1,26)             118.704          estimate D2E/DX2                !
 ! A3    A(3,1,8)              117.5538         estimate D2E/DX2                !
 ! A4    A(3,1,26)             118.0352         estimate D2E/DX2                !
 ! A5    A(8,1,26)             114.4536         estimate D2E/DX2                !
 ! A6    A(1,2,6)              116.6861         estimate D2E/DX2                !
 ! A7    A(1,2,7)              116.803          estimate D2E/DX2                !
 ! A8    A(3,2,6)              116.797          estimate D2E/DX2                !
 ! A9    A(3,2,7)              119.4687         estimate D2E/DX2                !
 ! A10   A(6,2,7)              115.5278         estimate D2E/DX2                !
 ! A11   A(1,3,4)              116.879          estimate D2E/DX2                !
 ! A12   A(1,3,5)              118.2522         estimate D2E/DX2                !
 ! A13   A(2,3,4)              118.8216         estimate D2E/DX2                !
 ! A14   A(2,3,5)              116.8665         estimate D2E/DX2                !
 ! A15   A(4,3,5)              115.3303         estimate D2E/DX2                !
 ! A16   A(10,9,13)            112.4543         estimate D2E/DX2                !
 ! A17   A(10,9,34)            120.4731         estimate D2E/DX2                !
 ! A18   A(13,9,34)            117.5262         estimate D2E/DX2                !
 ! A19   A(9,10,11)            108.2039         estimate D2E/DX2                !
 ! A20   A(9,10,16)            108.9879         estimate D2E/DX2                !
 ! A21   A(9,10,17)            111.2381         estimate D2E/DX2                !
 ! A22   A(11,10,16)           110.2355         estimate D2E/DX2                !
 ! A23   A(11,10,17)           108.8818         estimate D2E/DX2                !
 ! A24   A(16,10,17)           109.285          estimate D2E/DX2                !
 ! A25   A(10,11,12)           108.3437         estimate D2E/DX2                !
 ! A26   A(10,11,21)           109.1539         estimate D2E/DX2                !
 ! A27   A(10,11,22)           108.3034         estimate D2E/DX2                !
 ! A28   A(12,11,21)           108.8444         estimate D2E/DX2                !
 ! A29   A(12,11,22)           113.204          estimate D2E/DX2                !
 ! A30   A(21,11,22)           108.9263         estimate D2E/DX2                !
 ! A31   A(11,12,14)           111.7878         estimate D2E/DX2                !
 ! A32   A(11,12,15)           111.8051         estimate D2E/DX2                !
 ! A33   A(14,12,15)           111.1399         estimate D2E/DX2                !
 ! A34   A(9,13,14)            110.4383         estimate D2E/DX2                !
 ! A35   A(9,13,18)            109.7979         estimate D2E/DX2                !
 ! A36   A(9,13,19)            107.9039         estimate D2E/DX2                !
 ! A37   A(14,13,18)           108.2074         estimate D2E/DX2                !
 ! A38   A(14,13,19)           109.5352         estimate D2E/DX2                !
 ! A39   A(18,13,19)           110.9645         estimate D2E/DX2                !
 ! A40   A(12,14,13)           107.7573         estimate D2E/DX2                !
 ! A41   A(12,14,20)           112.0344         estimate D2E/DX2                !
 ! A42   A(12,14,40)           109.1666         estimate D2E/DX2                !
 ! A43   A(13,14,20)           107.5775         estimate D2E/DX2                !
 ! A44   A(13,14,40)           110.3033         estimate D2E/DX2                !
 ! A45   A(20,14,40)           109.9665         estimate D2E/DX2                !
 ! A46   A(36,24,38)           107.1641         estimate D2E/DX2                !
 ! A47   A(1,26,28)            122.8107         estimate D2E/DX2                !
 ! A48   A(1,26,30)            118.0732         estimate D2E/DX2                !
 ! A49   A(28,26,30)           118.9181         estimate D2E/DX2                !
 ! A50   A(28,27,34)           121.6069         estimate D2E/DX2                !
 ! A51   A(28,27,44)           119.4954         estimate D2E/DX2                !
 ! A52   A(34,27,44)           118.8945         estimate D2E/DX2                !
 ! A53   A(26,28,27)           123.2161         estimate D2E/DX2                !
 ! A54   A(26,28,29)           117.9557         estimate D2E/DX2                !
 ! A55   A(27,28,29)           118.8098         estimate D2E/DX2                !
 ! A56   A(28,29,32)           123.8012         estimate D2E/DX2                !
 ! A57   A(28,29,33)           119.5071         estimate D2E/DX2                !
 ! A58   A(32,29,33)           116.6718         estimate D2E/DX2                !
 ! A59   A(26,30,31)           125.6775         estimate D2E/DX2                !
 ! A60   A(26,30,37)           116.4642         estimate D2E/DX2                !
 ! A61   A(31,30,37)           117.8547         estimate D2E/DX2                !
 ! A62   A(30,31,32)           120.5198         estimate D2E/DX2                !
 ! A63   A(30,31,36)           113.9575         estimate D2E/DX2                !
 ! A64   A(32,31,36)           125.5076         estimate D2E/DX2                !
 ! A65   A(23,32,29)           120.3377         estimate D2E/DX2                !
 ! A66   A(23,32,31)           126.8713         estimate D2E/DX2                !
 ! A67   A(29,32,31)           112.7877         estimate D2E/DX2                !
 ! A68   A(29,33,35)           120.8605         estimate D2E/DX2                !
 ! A69   A(29,33,49)           117.6702         estimate D2E/DX2                !
 ! A70   A(35,33,49)           121.4486         estimate D2E/DX2                !
 ! A71   A(9,34,27)            119.6852         estimate D2E/DX2                !
 ! A72   A(9,34,35)            123.3413         estimate D2E/DX2                !
 ! A73   A(27,34,35)           116.9625         estimate D2E/DX2                !
 ! A74   A(33,35,34)           121.9589         estimate D2E/DX2                !
 ! A75   A(33,35,39)           118.9659         estimate D2E/DX2                !
 ! A76   A(34,35,39)           119.0677         estimate D2E/DX2                !
 ! A77   A(24,36,25)           121.8812         estimate D2E/DX2                !
 ! A78   A(24,36,31)           113.5774         estimate D2E/DX2                !
 ! A79   A(25,36,31)           124.5414         estimate D2E/DX2                !
 ! A80   A(14,40,41)           109.1647         estimate D2E/DX2                !
 ! A81   A(14,40,42)           110.8579         estimate D2E/DX2                !
 ! A82   A(14,40,43)           110.5891         estimate D2E/DX2                !
 ! A83   A(41,40,42)           109.4534         estimate D2E/DX2                !
 ! A84   A(41,40,43)           108.4759         estimate D2E/DX2                !
 ! A85   A(42,40,43)           108.2565         estimate D2E/DX2                !
 ! A86   A(27,44,45)           112.6126         estimate D2E/DX2                !
 ! A87   A(44,45,46)           109.7527         estimate D2E/DX2                !
 ! A88   A(44,45,47)           105.0299         estimate D2E/DX2                !
 ! A89   A(44,45,48)           110.2398         estimate D2E/DX2                !
 ! A90   A(46,45,47)           110.6827         estimate D2E/DX2                !
 ! A91   A(46,45,48)           110.6229         estimate D2E/DX2                !
 ! A92   A(47,45,48)           110.376          estimate D2E/DX2                !
 ! D1    D(8,1,2,6)           -145.097          estimate D2E/DX2                !
 ! D2    D(8,1,2,7)             -2.5058         estimate D2E/DX2                !
 ! D3    D(26,1,2,6)            -0.6328         estimate D2E/DX2                !
 ! D4    D(26,1,2,7)           141.9583         estimate D2E/DX2                !
 ! D5    D(8,1,3,4)              1.7549         estimate D2E/DX2                !
 ! D6    D(8,1,3,5)            146.5305         estimate D2E/DX2                !
 ! D7    D(26,1,3,4)          -142.0318         estimate D2E/DX2                !
 ! D8    D(26,1,3,5)             2.7438         estimate D2E/DX2                !
 ! D9    D(2,1,26,28)          -65.1398         estimate D2E/DX2                !
 ! D10   D(2,1,26,30)          109.6862         estimate D2E/DX2                !
 ! D11   D(3,1,26,28)         -134.8339         estimate D2E/DX2                !
 ! D12   D(3,1,26,30)           39.992          estimate D2E/DX2                !
 ! D13   D(8,1,26,28)           80.2936         estimate D2E/DX2                !
 ! D14   D(8,1,26,30)         -104.8804         estimate D2E/DX2                !
 ! D15   D(6,2,3,4)            147.1956         estimate D2E/DX2                !
 ! D16   D(6,2,3,5)              1.4888         estimate D2E/DX2                !
 ! D17   D(7,2,3,4)              0.0626         estimate D2E/DX2                !
 ! D18   D(7,2,3,5)           -145.6442         estimate D2E/DX2                !
 ! D19   D(13,9,10,11)         -57.7061         estimate D2E/DX2                !
 ! D20   D(13,9,10,16)        -177.5879         estimate D2E/DX2                !
 ! D21   D(13,9,10,17)          61.8514         estimate D2E/DX2                !
 ! D22   D(34,9,10,11)         156.868          estimate D2E/DX2                !
 ! D23   D(34,9,10,16)          36.9862         estimate D2E/DX2                !
 ! D24   D(34,9,10,17)         -83.5745         estimate D2E/DX2                !
 ! D25   D(10,9,13,14)          56.5811         estimate D2E/DX2                !
 ! D26   D(10,9,13,18)         -62.6638         estimate D2E/DX2                !
 ! D27   D(10,9,13,19)         176.2775         estimate D2E/DX2                !
 ! D28   D(34,9,13,14)        -156.8901         estimate D2E/DX2                !
 ! D29   D(34,9,13,18)          83.865          estimate D2E/DX2                !
 ! D30   D(34,9,13,19)         -37.1937         estimate D2E/DX2                !
 ! D31   D(10,9,34,27)        -158.8705         estimate D2E/DX2                !
 ! D32   D(10,9,34,35)          19.8884         estimate D2E/DX2                !
 ! D33   D(13,9,34,27)          57.3856         estimate D2E/DX2                !
 ! D34   D(13,9,34,35)        -123.8555         estimate D2E/DX2                !
 ! D35   D(9,10,11,12)          59.5687         estimate D2E/DX2                !
 ! D36   D(9,10,11,21)         177.9539         estimate D2E/DX2                !
 ! D37   D(9,10,11,22)         -63.5858         estimate D2E/DX2                !
 ! D38   D(16,10,11,12)        178.6643         estimate D2E/DX2                !
 ! D39   D(16,10,11,21)        -62.9504         estimate D2E/DX2                !
 ! D40   D(16,10,11,22)         55.5099         estimate D2E/DX2                !
 ! D41   D(17,10,11,12)        -61.4618         estimate D2E/DX2                !
 ! D42   D(17,10,11,21)         56.9234         estimate D2E/DX2                !
 ! D43   D(17,10,11,22)        175.3838         estimate D2E/DX2                !
 ! D44   D(10,11,12,14)        -63.7338         estimate D2E/DX2                !
 ! D45   D(10,11,12,15)        170.9394         estimate D2E/DX2                !
 ! D46   D(21,11,12,14)        177.6846         estimate D2E/DX2                !
 ! D47   D(21,11,12,15)         52.3577         estimate D2E/DX2                !
 ! D48   D(22,11,12,14)         56.4065         estimate D2E/DX2                !
 ! D49   D(22,11,12,15)        -68.9204         estimate D2E/DX2                !
 ! D50   D(11,12,14,13)         60.9486         estimate D2E/DX2                !
 ! D51   D(11,12,14,20)        -57.196          estimate D2E/DX2                !
 ! D52   D(11,12,14,40)       -179.2469         estimate D2E/DX2                !
 ! D53   D(15,12,14,13)       -173.3578         estimate D2E/DX2                !
 ! D54   D(15,12,14,20)         68.4975         estimate D2E/DX2                !
 ! D55   D(15,12,14,40)        -53.5534         estimate D2E/DX2                !
 ! D56   D(9,13,14,12)         -55.6703         estimate D2E/DX2                !
 ! D57   D(9,13,14,20)          65.3053         estimate D2E/DX2                !
 ! D58   D(9,13,14,40)        -174.7523         estimate D2E/DX2                !
 ! D59   D(18,13,14,12)         64.534          estimate D2E/DX2                !
 ! D60   D(18,13,14,20)       -174.4904         estimate D2E/DX2                !
 ! D61   D(18,13,14,40)        -54.548          estimate D2E/DX2                !
 ! D62   D(19,13,14,12)       -174.3776         estimate D2E/DX2                !
 ! D63   D(19,13,14,20)        -53.402          estimate D2E/DX2                !
 ! D64   D(19,13,14,40)         66.5404         estimate D2E/DX2                !
 ! D65   D(12,14,40,41)        -56.0364         estimate D2E/DX2                !
 ! D66   D(12,14,40,42)       -176.6822         estimate D2E/DX2                !
 ! D67   D(12,14,40,43)         63.2352         estimate D2E/DX2                !
 ! D68   D(13,14,40,41)         62.1844         estimate D2E/DX2                !
 ! D69   D(13,14,40,42)        -58.4614         estimate D2E/DX2                !
 ! D70   D(13,14,40,43)       -178.544          estimate D2E/DX2                !
 ! D71   D(20,14,40,41)       -179.3253         estimate D2E/DX2                !
 ! D72   D(20,14,40,42)         60.0289         estimate D2E/DX2                !
 ! D73   D(20,14,40,43)        -60.0537         estimate D2E/DX2                !
 ! D74   D(38,24,36,25)         -0.0783         estimate D2E/DX2                !
 ! D75   D(38,24,36,31)        179.9513         estimate D2E/DX2                !
 ! D76   D(1,26,28,27)         -13.2636         estimate D2E/DX2                !
 ! D77   D(1,26,28,29)         168.3203         estimate D2E/DX2                !
 ! D78   D(30,26,28,27)        171.9522         estimate D2E/DX2                !
 ! D79   D(30,26,28,29)         -6.464          estimate D2E/DX2                !
 ! D80   D(1,26,30,31)        -171.4351         estimate D2E/DX2                !
 ! D81   D(1,26,30,37)           7.8602         estimate D2E/DX2                !
 ! D82   D(28,26,30,31)          3.5973         estimate D2E/DX2                !
 ! D83   D(28,26,30,37)       -177.1074         estimate D2E/DX2                !
 ! D84   D(34,27,28,26)        175.653          estimate D2E/DX2                !
 ! D85   D(34,27,28,29)         -5.9436         estimate D2E/DX2                !
 ! D86   D(44,27,28,26)         -5.004          estimate D2E/DX2                !
 ! D87   D(44,27,28,29)        173.3993         estimate D2E/DX2                !
 ! D88   D(28,27,34,9)        -178.4392         estimate D2E/DX2                !
 ! D89   D(28,27,34,35)          2.724          estimate D2E/DX2                !
 ! D90   D(44,27,34,9)           2.2139         estimate D2E/DX2                !
 ! D91   D(44,27,34,35)       -176.6228         estimate D2E/DX2                !
 ! D92   D(28,27,44,45)       -106.3365         estimate D2E/DX2                !
 ! D93   D(34,27,44,45)         73.0243         estimate D2E/DX2                !
 ! D94   D(26,28,29,32)          4.4673         estimate D2E/DX2                !
 ! D95   D(26,28,29,33)       -177.2125         estimate D2E/DX2                !
 ! D96   D(27,28,29,32)       -174.0204         estimate D2E/DX2                !
 ! D97   D(27,28,29,33)          4.2997         estimate D2E/DX2                !
 ! D98   D(28,29,32,23)        179.9092         estimate D2E/DX2                !
 ! D99   D(28,29,32,31)          0.5334         estimate D2E/DX2                !
 ! D100  D(33,29,32,23)          1.5452         estimate D2E/DX2                !
 ! D101  D(33,29,32,31)       -177.8306         estimate D2E/DX2                !
 ! D102  D(28,29,33,35)          0.4578         estimate D2E/DX2                !
 ! D103  D(28,29,33,49)        178.8256         estimate D2E/DX2                !
 ! D104  D(32,29,33,35)        178.8957         estimate D2E/DX2                !
 ! D105  D(32,29,33,49)         -2.7365         estimate D2E/DX2                !
 ! D106  D(26,30,31,32)          1.7719         estimate D2E/DX2                !
 ! D107  D(26,30,31,36)       -179.568          estimate D2E/DX2                !
 ! D108  D(37,30,31,32)       -177.5146         estimate D2E/DX2                !
 ! D109  D(37,30,31,36)          1.1455         estimate D2E/DX2                !
 ! D110  D(30,31,32,23)        177.0307         estimate D2E/DX2                !
 ! D111  D(30,31,32,29)         -3.6428         estimate D2E/DX2                !
 ! D112  D(36,31,32,23)         -1.4651         estimate D2E/DX2                !
 ! D113  D(36,31,32,29)        177.8615         estimate D2E/DX2                !
 ! D114  D(30,31,36,24)       -179.9763         estimate D2E/DX2                !
 ! D115  D(30,31,36,25)          0.0542         estimate D2E/DX2                !
 ! D116  D(32,31,36,24)         -1.3943         estimate D2E/DX2                !
 ! D117  D(32,31,36,25)        178.6362         estimate D2E/DX2                !
 ! D118  D(29,33,35,34)         -3.8211         estimate D2E/DX2                !
 ! D119  D(29,33,35,39)        177.1828         estimate D2E/DX2                !
 ! D120  D(49,33,35,34)        177.8734         estimate D2E/DX2                !
 ! D121  D(49,33,35,39)         -1.1227         estimate D2E/DX2                !
 ! D122  D(9,34,35,33)        -176.5882         estimate D2E/DX2                !
 ! D123  D(9,34,35,39)           2.407          estimate D2E/DX2                !
 ! D124  D(27,34,35,33)          2.2021         estimate D2E/DX2                !
 ! D125  D(27,34,35,39)       -178.8028         estimate D2E/DX2                !
 ! D126  D(27,44,45,46)        -59.5873         estimate D2E/DX2                !
 ! D127  D(27,44,45,47)       -178.5988         estimate D2E/DX2                !
 ! D128  D(27,44,45,48)         62.5038         estimate D2E/DX2                !
 --------------------------------------------------------------------------------
 Trust Radius=3.00D-01 FncErr=1.00D-07 GrdErr=1.00D-06
 Number of steps in this run=    282 maximum allowed number of steps=    294.
 GradGradGradGradGradGradGradGradGradGradGradGradGradGradGradGradGradGrad

                          Input orientation:                          
 ---------------------------------------------------------------------
 Center     Atomic      Atomic             Coordinates (Angstroms)
 Number     Number       Type             X           Y           Z
 ---------------------------------------------------------------------
      1          6           0        1.422963    2.592709    0.211320
      2          6           0        0.803803    3.158993   -1.042569
      3          6           0        2.208833    3.590147   -0.633644
      4          1           0        2.350838    4.579779   -0.217228
      5          1           0        3.029047    3.218439   -1.234667
      6          1           0        0.725764    2.490676   -1.891022
      7          1           0       -0.022636    3.844868   -0.911740
      8          1           0        1.031163    2.938336    1.157277
      9          7           0       -2.697634   -0.655157    0.094720
     10          6           0       -3.600811   -1.815198    0.329184
     11          6           0       -4.894698   -1.293873    0.966606
     12          7           0       -5.511680   -0.320534    0.038580
     13          6           0       -3.323617    0.389924   -0.772416
     14          6           0       -4.651565    0.869004   -0.162437
     15          1           0       -6.453055   -0.049291    0.341609
     16          1           0       -3.107579   -2.518763    0.999085
     17          1           0       -3.847632   -2.322332   -0.610294
     18          1           0       -3.533761   -0.028658   -1.767615
     19          1           0       -2.631402    1.226924   -0.840286
     20          1           0       -4.416844    1.377342    0.791471
     21          1           0       -5.585779   -2.130507    1.112431
     22          1           0       -4.645466   -0.858598    1.952081
     23          8           0        3.370173   -2.624072   -0.405107
     24          8           0        5.823319   -1.500557   -0.012824
     25          8           0        5.924664    0.750210    0.349128
     26          7           0        1.861332    1.191225    0.210527
     27          6           0       -0.436229    0.242681    0.210891
     28          6           0        0.962425    0.107171    0.080299
     29          6           0        1.501455   -1.173151   -0.159518
     30          6           0        3.198078    0.938429    0.233141
     31          6           0        3.780433   -0.287472    0.070655
     32          6           0        2.964055   -1.465810   -0.188307
     33          6           0        0.642518   -2.255240   -0.351484
     34          6           0       -1.308977   -0.843581   -0.014607
     35          6           0       -0.716602   -2.087826   -0.319170
     36          6           0        5.247091   -0.266622    0.151781
     37          1           0        3.847501    1.790761    0.382679
     38          1           0        6.810336   -1.376336    0.058380
     39          9           0       -1.529181   -3.172619   -0.571930
     40          6           0       -5.355198    1.844371   -1.117048
     41          1           0       -5.591894    1.325248   -2.050822
     42          1           0       -4.717291    2.708433   -1.331652
     43          1           0       -6.290286    2.208973   -0.675504
     44          8           0       -0.979962    1.485117    0.588167
     45          6           0       -1.472487    1.491692    1.994626
     46          1           0       -2.246167    0.732739    2.117831
     47          1           0       -1.884895    2.490277    2.145266
     48          1           0       -0.643447    1.313194    2.687099
     49          1           0        1.087608   -3.220336   -0.552536
 ---------------------------------------------------------------------
                    Distance matrix (angstroms):
                    1          2          3          4          5
     1  C    0.000000
     2  C    1.508733   0.000000
     3  C    1.525267   1.525524   0.000000
     4  H    2.234514   2.256798   1.083023   0.000000
     5  H    2.249872   2.234311   1.082657   1.829862   0.000000
     6  H    2.217282   1.082871   2.233681   3.131582   2.503109
     7  H    2.217864   1.081916   2.263112   2.579888   3.132006
     8  H    1.080648   2.222545   2.240349   2.514983   3.129120
     9  N    5.248004   5.301059   6.528900   7.279350   7.040376
    10  C    6.684448   6.784166   7.993545   8.753081   8.469838
    11  C    7.455791   7.505845   8.767816   9.402077   9.380421
    12  N    7.523702   7.291181   8.680532   9.268101   9.332176
    13  C    5.324474   4.977582   6.392862   7.075490   6.969255
    14  C    6.325405   5.981615   7.395385   7.925055   8.103167
    15  H    8.308357   8.054255   9.445895   9.962385  10.152486
    16  H    6.875575   7.190561   8.261285   9.036760   8.692716
    17  H    7.253403   7.201919   8.463966   9.285185   8.853175
    18  H    5.946164   5.431507   6.881789   7.633472   7.341534
    19  H    4.405578   3.946447   5.390306   6.037595   6.013514
    20  H    5.993083   5.813187   7.129310   7.554773   7.933232
    21  H    8.499602   8.570274   9.825001  10.477873  10.408425
    22  H    7.194970   7.402939   8.570806   9.123054   9.256119
    23  O    5.602358   6.358966   6.325935   7.278036   5.910962
    24  O    6.014000   6.925844   6.274169   7.005026   5.618699
    25  O    4.866118   5.827716   4.778963   5.268642   4.121305
    26  N    1.468443   2.561392   2.566751   3.450346   2.749862
    27  C    2.996536   3.407890   4.349152   5.173147   4.790920
    28  C    2.531237   3.255704   3.767542   4.692594   3.959804
    29  C    3.784889   4.475932   4.838821   5.815581   4.772373
    30  C    2.426551   3.505837   2.959988   3.765644   2.716887
    31  C    3.724633   4.688040   4.242864   5.081019   3.815738
    32  C    4.359615   5.175447   5.131412   6.076678   4.800134
    33  C    4.942515   5.460543   6.058177   7.046550   6.036282
    34  C    4.395751   4.641244   5.693517   6.545849   6.066878
    35  C    5.173641   5.510358   6.395033   7.340064   6.559304
    36  C    4.775277   5.736211   4.972180   5.657919   4.357477
    37  H    2.559467   3.628703   2.637411   3.221569   2.307366
    38  H    6.693317   7.606559   6.805783   7.445696   6.089505
    39  F    6.524388   6.764143   7.727326   8.676407   7.877962
    40  C    6.947520   6.298180   7.777916   8.226489   8.496909
    41  H    7.478767   6.729349   8.245575   8.777302   8.864023
    42  H    6.332209   5.546986   7.016825   7.396102   7.763715
    43  H    7.773540   7.166825   8.610715   8.972166   9.390509
    44  O    2.672606   2.939894   4.011532   4.617339   4.732788
    45  C    3.574360   4.145593   4.986325   5.389471   5.802913
    46  H    4.533959   5.017684   5.965100   6.433092   6.726502
    47  H    3.833088   4.223573   5.068596   5.280988   6.008410
    48  H    3.469393   4.405897   4.934303   5.298248   5.700651
    49  H    5.872600   6.404414   6.902637   7.908854   6.759609
                    6          7          8          9         10
     6  H    0.000000
     7  H    1.831101   0.000000
     8  H    3.096093   2.492614   0.000000
     9  N    5.055600   5.330929   5.286411   0.000000
    10  C    6.495315   6.810255   6.688573   1.488757   0.000000
    11  C    7.353805   7.326106   7.284489   2.448517   1.533698
    12  N    7.108584   6.955810   7.394627   2.834427   2.443336
    13  C    4.697012   4.780431   5.402058   1.495317   2.480508
    14  C    5.876521   5.553756   6.190087   2.491394   2.924161
    15  H    7.935459   7.621394   8.099676   3.811983   3.354680
    16  H    6.938423   7.325567   6.850850   2.111625   1.089518
    17  H    6.761750   7.263320   7.389288   2.144531   1.095776
    18  H    4.950336   5.297615   6.180338   2.135392   2.755501
    19  H    3.737871   3.696538   4.509276   2.102582   3.400282
    20  H    5.906073   5.319650   5.679023   2.751763   3.327451
    21  H    8.379238   8.411357   8.335413   3.399084   2.157080
    22  H    7.405214   7.189897   6.875503   2.699116   2.154108
    23  O    5.946553   7.322227   6.233169   6.398807   7.056067
    24  O    6.741115   7.972252   6.636088   8.563463   9.435581
    25  O    5.922504   6.821809   5.421010   8.739783   9.864907
    26  N    2.719301   3.442476   2.153581   4.920031   6.235998
    27  C    3.289642   3.795670   3.211766   2.435890   3.776697
    28  C    3.102130   3.990597   3.029868   3.738634   4.957879
    29  C    4.125946   5.298038   4.342747   4.238550   5.165672
    30  C    3.610246   4.486774   3.090174   6.108854   7.335978
    31  C    4.571355   5.701286   4.375508   6.488538   7.542118
    32  C    4.854170   6.135713   4.994314   5.726429   6.594493
    33  C    4.990073   6.161788   5.422235   3.730413   4.320045
    34  C    4.333402   4.943792   4.599181   1.405640   2.512914
    35  C    5.051121   6.002465   5.522398   2.479583   2.968729
    36  C    5.676102   6.767972   5.390438   7.954425   8.984149
    37  H    3.924900   4.568680   3.138262   6.993156   8.275455
    38  H    7.468331   8.653994   7.295396   9.535351  10.423911
    39  F    6.236801   7.185421   6.847575   2.854351   2.635574
    40  C    6.163996   5.699154   6.866944   3.844303   4.308353
    41  H    6.426240   6.217928   7.533846   4.111216   4.414889
    42  H    5.476053   4.848463   6.268361   4.174600   4.946528
    43  H    7.126135   6.481928   7.582524   4.658716   4.943342
    44  O    3.172858   2.955439   2.545654   2.788308   4.222322
    45  C    4.574772   4.010794   3.010348   3.117625   4.270712
    46  H    5.290900   4.879317   4.065491   2.494605   3.395041
    47  H    4.806991   3.827298   3.111314   3.841749   4.977915
    48  H    4.921422   4.443695   2.790298   3.848963   4.908421
    49  H    5.876915   7.160920   6.391861   4.618132   4.973240
                   11         12         13         14         15
    11  C    0.000000
    12  N    1.479624   0.000000
    13  C    2.885769   2.439280   0.000000
    14  C    2.451915   1.481623   1.537868   0.000000
    15  H    2.089996   1.025469   3.350723   2.083913   0.000000
    16  H    2.166842   3.396245   3.412528   3.899999   4.209843
    17  H    2.154226   2.682776   2.767166   3.321372   3.586233
    18  H    3.305886   2.694382   1.099906   2.152180   3.601601
    19  H    3.839503   3.385710   1.088272   2.160705   4.198885
    20  H    2.719266   2.155990   2.148460   1.106093   2.526621
    21  H    1.094904   2.105861   3.875900   3.390444   2.382812
    22  H    1.105777   2.168254   3.275512   2.730537   2.552641
    23  O    8.482872   9.186428   7.350232   8.752642  10.182480
    24  O   10.764659  11.396372   9.371090  10.740596  12.366938
    25  O   11.028062  11.490557   9.323002  10.589260  12.403515
    26  N    7.238184   7.528365   5.337786   6.531520   8.407443
    27  C    4.775987   5.109511   3.053782   4.277933   6.025324
    28  C    6.087229   6.488352   4.379181   5.670643   7.421732
    29  C    6.495653   7.067550   5.108832   6.483060   8.049125
    30  C    8.426990   8.802427   6.621519   7.859911   9.702150
    31  C    8.779150   9.292227   7.185900   8.514127  10.239845
    32  C    7.945023   8.555771   6.581774   7.965532   9.537783
    33  C    5.772551   6.462924   4.785844   6.150118   7.462824
    34  C    3.744721   4.235460   2.480843   3.758683   5.217214
    35  C    4.442980   5.122898   3.625080   4.924565   6.123655
    36  C   10.226195  10.759502   8.645359   9.968539  11.703704
    37  H    9.288809   9.600533   7.397400   8.566266  10.463696
    38  H   11.740507  12.367182  10.320218  11.681844  13.332622
    39  F    4.150119   4.936336   3.993984   5.123640   5.902056
    40  C    3.795030   2.459019   2.522203   1.535488   2.630385
    41  H    4.055952   2.660946   2.766629   2.158327   2.890447
    42  H    4.618649   3.418074   2.762346   2.180569   3.663021
    43  H    4.112678   2.741268   3.481301   2.178110   2.482090
    44  O    4.815720   4.909062   2.922901   3.797851   5.689459
    45  C    4.530753   4.839975   3.506722   3.891940   5.469292
    46  H    3.528058   4.012012   3.103538   3.317247   4.632973
    47  H    4.976740   5.048995   3.872244   3.950757   5.529075
    48  H    5.275417   5.777838   4.472581   4.937831   6.411648
    49  H    6.465836   7.232487   5.704492   7.057832   8.229011
                   16         17         18         19         20
    16  H    0.000000
    17  H    1.782236   0.000000
    18  H    3.746583   2.588213   0.000000
    19  H    4.200024   3.758900   1.802963   0.000000
    20  H    4.115448   3.997066   3.050507   2.423440   0.000000
    21  H    2.510989   2.454737   4.113783   4.879938   3.711392
    22  H    2.455493   3.056930   3.969991   4.025316   2.529567
    23  O    6.629036   7.227023   7.500460   7.144120   8.836331
    24  O    9.045532   9.724175   9.633313   8.922228  10.667246
    25  O    9.627567  10.288769   9.723633   8.651487  10.369945
    26  N    6.251073   6.753599   5.874367   4.614124   6.307744
    27  C    3.922108   4.346413   3.685487   2.625356   4.179692
    28  C    4.929973   5.432868   4.863016   3.875167   5.572758
    29  C    4.939254   5.489676   5.408257   4.827454   6.514266
    30  C    7.231885   7.809352   7.089142   5.934502   7.647968
    31  C    7.299682   7.924123   7.546102   6.650928   8.395626
    32  C    6.275615   6.878283   6.839681   6.243799   7.970016
    33  C    3.994585   4.498103   4.940081   4.804471   6.332388
    34  C    2.658717   2.997719   2.947338   2.591823   3.903985
    35  C    2.764105   3.153267   3.778168   3.863365   5.189673
    36  C    8.694284   9.355249   8.991333   8.079946   9.823617
    37  H    8.205187   8.781720   7.900448   6.617382   8.284771
    38  H   10.027717  10.720742  10.590129   9.835191  11.583166
    39  F    2.320982   2.469752   3.915673   4.543444   5.558741
    40  C    5.344787   4.459929   2.692417   2.806582   2.177400
    41  H    5.500016   4.292134   2.479754   3.199934   3.076050
    42  H    5.945342   5.156090   3.013714   2.605234   2.523831
    43  H    5.940148   5.148158   3.714583   3.791966   2.520597
    44  O    4.552654   4.914927   3.789870   2.198726   3.444576
    45  C    4.443915   5.193621   4.551348   3.074071   3.182750
    46  H    3.544840   4.397819   4.163450   3.023753   2.624230
    47  H    5.281966   5.882742   4.937047   3.326688   3.079310
    48  H    4.858522   5.861455   5.477131   4.049920   4.223274
    49  H    4.527618   5.016607   5.746327   5.804477   7.296848
                   21         22         23         24         25
    21  H    0.000000
    22  H    1.790797   0.000000
    23  O    9.097011   8.539538   0.000000
    24  O   11.481749  10.670915   2.726554   0.000000
    25  O   11.889973  10.811354   4.298846   2.281936   0.000000
    26  N    8.204072   7.040824   4.148747   4.795093   4.089544
    27  C    5.741312   4.686388   4.804833   6.501605   6.382606
    28  C    6.996533   5.990386   3.673222   5.120718   5.010946
    29  C    7.263833   6.507106   2.378569   4.336729   4.850033
    30  C    9.345997   8.228320   3.623312   3.591802   2.735535
    31  C    9.602500   8.652267   2.419579   2.377378   2.398345
    32  C    8.673719   7.928100   1.246397   2.864855   3.736949
    33  C    6.399241   5.934627   2.753001   5.246421   6.117569
    34  C    4.606238   3.873015   5.021661   7.162490   7.416066
    35  C    5.075450   4.701654   4.122702   6.573378   7.253102
    36  C   11.033947  10.072448   3.064395   1.371761   1.237739
    37  H   10.241858   9.033970   4.509900   3.859152   2.323463
    38  H   12.463686  11.622803   3.688684   0.997348   2.321884
    39  F    4.514317   4.629963   4.932789   7.560929   8.473296
    40  C    4.563266   4.150821   9.828832  11.720371  11.427255
    41  H    4.684917   4.657053   9.930969  11.935062  11.778011
    42  H    5.490278   4.848894   9.731453  11.426258  10.950382
    43  H    4.745959   4.361150  10.805365  12.686181  12.344345
    44  O    5.878872   4.559515   6.065946   7.453863   6.947740
    45  C    5.551375   3.948857   6.793349   8.137088   7.614151
    46  H    4.512429   2.883828   7.012608   8.639670   8.360089
    47  H    6.009570   4.344311   7.763808   8.944309   8.200192
    48  H    6.226179   4.612276   6.416615   7.551546   6.994508
    49  H    6.963759   6.687230   2.363762   5.067138   6.322606
                   26         27         28         29         30
    26  N    0.000000
    27  C    2.485663   0.000000
    28  C    1.414272   1.411258   0.000000
    29  C    2.420066   2.428251   1.409713   0.000000
    30  C    1.360627   3.700371   2.390083   2.737057   0.000000
    31  C    2.426738   4.252172   2.845524   2.455839   1.366884
    32  C    2.904290   3.826256   2.559871   1.491870   2.452091
    33  C    3.698579   2.778411   2.422759   1.394826   4.131851
    34  C    3.773855   1.411561   2.464184   2.833398   4.852884
    35  C    4.204581   2.406416   2.792261   2.404557   4.978753
    36  C    3.686751   5.706401   4.301534   3.866328   2.378491
    37  H    2.081813   4.558114   3.354038   3.818728   1.081934
    38  H    5.577469   7.426788   6.033186   5.317234   4.293843
    39  F    5.581304   3.670371   4.170195   3.654136   6.316315
    40  C    7.366638   5.340888   6.660620   7.552218   8.706450
    41  H    7.789881   5.733078   6.998892   7.754652   9.090089
    42  H    6.925209   5.175603   6.404635   7.423840   8.260421
    43  H    8.262550   6.238749   7.588849   8.509773   9.616079
    44  O    2.881308   1.407704   2.435063   3.712526   4.228585
    45  C    3.793104   2.411549   3.392690   4.537186   5.022261
    46  H    4.551875   2.674407   3.852004   4.781569   5.764908
    47  H    4.411912   3.300322   4.248590   5.495462   5.648103
    48  H    3.524515   2.705650   3.290702   4.345773   4.573803
    49  H    4.543433   3.859713   3.389462   2.125253   4.729344
                   31         32         33         34         35
    31  C    0.000000
    32  C    1.456714   0.000000
    33  C    3.727844   2.457511   0.000000
    34  C    5.120412   4.321590   2.431995   0.000000
    35  C    4.859687   3.735139   1.369773   1.411316   0.000000
    36  C    1.469048   2.601147   5.040830   6.583509   6.253336
    37  H    2.102596   3.422244   5.213543   5.804038   6.030511
    38  H    3.219641   3.855222   6.243592   8.137100   7.569911
    39  F    6.076923   4.821777   2.367796   2.404894   1.378749
    40  C    9.455958   9.001657   7.305169   4.981201   6.133136
    41  H    9.743821   9.190388   7.387526   5.214726   6.198078
    42  H    9.118839   8.816724   7.370640   5.095882   6.327301
    43  H   10.402325   9.969163   8.252149   5.879482   7.046659
    44  O    5.106001   4.986597   4.183976   2.427843   3.695746
    45  C    5.870286   5.761503   4.900712   3.085004   4.328737
    46  H    6.446058   6.107234   4.834257   2.812544   4.029160
    47  H    6.641976   6.678960   5.928027   4.013894   5.328919
    48  H    5.383180   5.385619   4.860084   3.520486   4.539817
    49  H    4.030058   2.594625   1.081636   3.417887   2.142945
                   36         37         38         39         40
    36  C    0.000000
    37  H    2.498998   0.000000
    38  H    1.919355   4.349030   0.000000
    39  F    7.408538   7.379372   8.554032   0.000000
    40  C   10.884611   9.324255  12.639415   6.332910   0.000000
    41  H   11.174485   9.759140  12.867113   6.238875   1.094279
    42  H   10.504306   8.782751  12.308684   6.732607   1.095255
    43  H   11.828949  10.201440  13.602181   7.186124   1.096488
    44  O    6.483457   4.841492   8.316089   4.831353   4.709513
    45  C    7.186131   5.566874   8.976625   5.324117   4.988220
    46  H    7.811081   6.423625   9.524168   4.795905   4.622363
    47  H    7.901879   6.037914   9.742322   6.291111   4.806547
    48  H    6.604702   5.070211   8.348809   5.615008   6.079003
    49  H    5.149931   5.796786   6.043440   2.617296   8.214602
                   41         42         43         44         45
    41  H    0.000000
    42  H    1.787550   0.000000
    43  H    1.777701   1.776036   0.000000
    44  O    5.315989   4.376052   5.506394   0.000000
    45  C    5.776060   4.803471   5.554752   1.490218   0.000000
    46  H    5.377976   4.680679   5.131948   2.123492   1.090766
    47  H    5.718941   4.489879   5.238640   2.062476   1.090846
    48  H    6.850925   5.890098   6.632971   2.132678   1.094846
    49  H    8.217234   8.333917   9.161105   5.264726   5.936778
                   46         47         48         49
    46  H    0.000000
    47  H    1.794494   0.000000
    48  H    1.797138   1.794520   0.000000
    49  H    5.819941   6.980330   5.834782   0.000000
 Stoichiometry    C19H22FN3O4
 Framework group  C1[X(C19H22FN3O4)]
 Deg. of freedom   141
 Full point group                 C1      NOp   1
 Largest Abelian subgroup         C1      NOp   1
 Largest concise Abelian subgroup C1      NOp   1
                         Standard orientation:                         
 ---------------------------------------------------------------------
 Center     Atomic      Atomic             Coordinates (Angstroms)
 Number     Number       Type             X           Y           Z
 ---------------------------------------------------------------------
      1          6           0        1.422963    2.592709    0.211320
      2          6           0        0.803803    3.158993   -1.042569
      3          6           0        2.208833    3.590147   -0.633644
      4          1           0        2.350838    4.579779   -0.217228
      5          1           0        3.029047    3.218439   -1.234667
      6          1           0        0.725764    2.490676   -1.891022
      7          1           0       -0.022636    3.844868   -0.911740
      8          1           0        1.031163    2.938336    1.157277
      9          7           0       -2.697634   -0.655157    0.094720
     10          6           0       -3.600811   -1.815198    0.329184
     11          6           0       -4.894698   -1.293873    0.966606
     12          7           0       -5.511680   -0.320534    0.038580
     13          6           0       -3.323617    0.389924   -0.772416
     14          6           0       -4.651565    0.869004   -0.162437
     15          1           0       -6.453055   -0.049291    0.341609
     16          1           0       -3.107579   -2.518763    0.999085
     17          1           0       -3.847632   -2.322332   -0.610294
     18          1           0       -3.533761   -0.028658   -1.767615
     19          1           0       -2.631402    1.226924   -0.840286
     20          1           0       -4.416844    1.377342    0.791471
     21          1           0       -5.585779   -2.130507    1.112431
     22          1           0       -4.645466   -0.858598    1.952081
     23          8           0        3.370173   -2.624072   -0.405107
     24          8           0        5.823319   -1.500557   -0.012824
     25          8           0        5.924664    0.750210    0.349128
     26          7           0        1.861332    1.191225    0.210527
     27          6           0       -0.436229    0.242681    0.210891
     28          6           0        0.962425    0.107171    0.080299
     29          6           0        1.501455   -1.173151   -0.159518
     30          6           0        3.198078    0.938429    0.233141
     31          6           0        3.780433   -0.287472    0.070655
     32          6           0        2.964055   -1.465810   -0.188307
     33          6           0        0.642518   -2.255240   -0.351484
     34          6           0       -1.308977   -0.843581   -0.014607
     35          6           0       -0.716602   -2.087826   -0.319170
     36          6           0        5.247091   -0.266622    0.151781
     37          1           0        3.847501    1.790761    0.382679
     38          1           0        6.810336   -1.376336    0.058380
     39          9           0       -1.529181   -3.172619   -0.571930
     40          6           0       -5.355198    1.844371   -1.117048
     41          1           0       -5.591894    1.325248   -2.050822
     42          1           0       -4.717291    2.708433   -1.331652
     43          1           0       -6.290286    2.208973   -0.675504
     44          8           0       -0.979962    1.485117    0.588167
     45          6           0       -1.472487    1.491692    1.994626
     46          1           0       -2.246167    0.732739    2.117831
     47          1           0       -1.884895    2.490277    2.145266
     48          1           0       -0.643447    1.313194    2.687099
     49          1           0        1.087608   -3.220336   -0.552536
 ---------------------------------------------------------------------
 Rotational constants (GHZ):      0.3706730      0.1117538      0.0909638
 Standard basis: LANL2DZ (5D, 7F)
 There are   287 symmetry adapted cartesian basis functions of A   symmetry.
 There are   287 symmetry adapted basis functions of A   symmetry.
   287 basis functions,   763 primitive gaussians,   287 cartesian basis functions
    99 alpha electrons       99 beta electrons
       nuclear repulsion energy      2591.7550001613 Hartrees.
 NAtoms=   49 NActive=   49 NUniq=   49 SFac= 1.00D+00 NAtFMM=   60 NAOKFM=F Big=F
 Integral buffers will be    131072 words long.
 Raffenetti 2 integral format.
 Two-electron integral symmetry is turned on.
 One-electron integrals computed using PRISM.
 PrsmSu:  requested number of processors reduced to:   8 ShMem   1 Linda.
   1 Symmetry operations used in ECPInt.
 ECPInt:  NShTT=   16110 NPrTT=  122593 LenC2=   14364 LenP2D=   59920.
 LDataN:  DoStor=T MaxTD1= 2 Len=   12
 Number of processors reduced to   7 by ecpmxn.
 NBasis=   287 RedAO= T EigKep=  1.65D-04  NBF=   287
 NBsUse=   287 1.00D-06 EigRej= -1.00D+00 NBFU=   287
 ExpMin= 1.15D-01 ExpMax= 1.00D+04 ExpMxC= 3.50D+02 IAcc=3 IRadAn=         5 AccDes= 0.00D+00
 Harris functional with IExCor= 1009 and IRadAn=       5 diagonalized for initial guess.
 HarFok:  IExCor= 1009 AccDes= 0.00D+00 IRadAn=         5 IDoV= 1 UseB2=F ITyADJ=14
 ICtDFT=  3500011 ScaDFX=  1.000000  1.000000  1.000000  1.000000
 FoFCou: FMM=F IPFlag=           0 FMFlag=      100000 FMFlg1=           0
         NFxFlg=           0 DoJE=T BraDBF=F KetDBF=T FulRan=T
         wScrn=  0.000000 ICntrl=     500 IOpCl=  0 I1Cent=   200000004 NGrid=           0
         NMat0=    1 NMatS0=      1 NMatT0=    0 NMatD0=    1 NMtDS0=    0 NMtDT0=    0
 Petite list used in FoFCou.
 Requested convergence on RMS density matrix=1.00D-08 within 128 cycles.
 Requested convergence on MAX density matrix=1.00D-06.
 Requested convergence on             energy=1.00D-06.
 No special actions if energy rises.
 Integral accuracy reduced to 1.0D-05 until final iterations.
 Initial convergence to 1.0D-05 achieved.  Increase integral accuracy.
 SCF Done:  E(RM06) =  -1301.21797124     A.U. after   17 cycles
            NFock= 17  Conv=0.92D-08     -V/T= 2.0049

 **********************************************************************

            Population analysis using the SCF density.

 **********************************************************************

 Orbital symmetries:
       Occupied  (A) (A) (A) (A) (A) (A) (A) (A) (A) (A) (A) (A)
                 (A) (A) (A) (A) (A) (A) (A) (A) (A) (A) (A) (A)
                 (A) (A) (A) (A) (A) (A) (A) (A) (A) (A) (A) (A)
                 (A) (A) (A) (A) (A) (A) (A) (A) (A) (A) (A) (A)
                 (A) (A) (A) (A) (A) (A) (A) (A) (A) (A) (A) (A)
                 (A) (A) (A) (A) (A) (A) (A) (A) (A) (A) (A) (A)
                 (A) (A) (A) (A) (A) (A) (A) (A) (A) (A) (A) (A)
                 (A) (A) (A) (A) (A) (A) (A) (A) (A) (A) (A) (A)
                 (A) (A) (A)
       Virtual   (A) (A) (A) (A) (A) (A) (A) (A) (A) (A) (A) (A)
                 (A) (A) (A) (A) (A) (A) (A) (A) (A) (A) (A) (A)
                 (A) (A) (A) (A) (A) (A) (A) (A) (A) (A) (A) (A)
                 (A) (A) (A) (A) (A) (A) (A) (A) (A) (A) (A) (A)
                 (A) (A) (A) (A) (A) (A) (A) (A) (A) (A) (A) (A)
                 (A) (A) (A) (A) (A) (A) (A) (A) (A) (A) (A) (A)
                 (A) (A) (A) (A) (A) (A) (A) (A) (A) (A) (A) (A)
                 (A) (A) (A) (A) (A) (A) (A) (A) (A) (A) (A) (A)
                 (A) (A) (A) (A) (A) (A) (A) (A) (A) (A) (A) (A)
                 (A) (A) (A) (A) (A) (A) (A) (A) (A) (A) (A) (A)
                 (A) (A) (A) (A) (A) (A) (A) (A) (A) (A) (A) (A)
                 (A) (A) (A) (A) (A) (A) (A) (A) (A) (A) (A) (A)
                 (A) (A) (A) (A) (A) (A) (A) (A) (A) (A) (A) (A)
                 (A) (A) (A) (A) (A) (A) (A) (A) (A) (A) (A) (A)
                 (A) (A) (A) (A) (A) (A) (A) (A) (A) (A) (A) (A)
                 (A) (A) (A) (A) (A) (A) (A) (A)
 The electronic state is 1-A.
 Alpha  occ. eigenvalues --  -24.80293 -19.25950 -19.25747 -19.21459 -19.18852
 Alpha  occ. eigenvalues --  -14.48528 -14.42544 -14.39288 -10.39972 -10.35284
 Alpha  occ. eigenvalues --  -10.34152 -10.33569 -10.33317 -10.32981 -10.32656
 Alpha  occ. eigenvalues --  -10.31939 -10.31421 -10.29058 -10.28223 -10.28147
 Alpha  occ. eigenvalues --  -10.28133 -10.27690 -10.27418 -10.27103 -10.27003
 Alpha  occ. eigenvalues --  -10.26974 -10.24410  -1.26060  -1.13184  -1.08655
 Alpha  occ. eigenvalues --   -1.04798  -1.04304  -1.02654  -0.97348  -0.92383
 Alpha  occ. eigenvalues --   -0.90110  -0.88091  -0.83260  -0.80071  -0.79611
 Alpha  occ. eigenvalues --   -0.78634  -0.73323  -0.72483  -0.70762  -0.69609
 Alpha  occ. eigenvalues --   -0.67101  -0.66234  -0.64088  -0.63578  -0.62399
 Alpha  occ. eigenvalues --   -0.60918  -0.58874  -0.57542  -0.56943  -0.56024
 Alpha  occ. eigenvalues --   -0.54108  -0.52958  -0.52168  -0.51065  -0.50338
 Alpha  occ. eigenvalues --   -0.49954  -0.49752  -0.48481  -0.48271  -0.48173
 Alpha  occ. eigenvalues --   -0.47759  -0.47091  -0.47000  -0.46335  -0.45362
 Alpha  occ. eigenvalues --   -0.44893  -0.44334  -0.43569  -0.43190  -0.42595
 Alpha  occ. eigenvalues --   -0.41578  -0.40485  -0.40146  -0.39845  -0.39655
 Alpha  occ. eigenvalues --   -0.39584  -0.39342  -0.38817  -0.38459  -0.36775
 Alpha  occ. eigenvalues --   -0.36289  -0.35611  -0.35133  -0.33774  -0.33286
 Alpha  occ. eigenvalues --   -0.32458  -0.30846  -0.29923  -0.29054  -0.28126
 Alpha  occ. eigenvalues --   -0.24590  -0.24102  -0.23888  -0.22584
 Alpha virt. eigenvalues --   -0.05459  -0.04435  -0.00142   0.02723   0.05779
 Alpha virt. eigenvalues --    0.08806   0.09020   0.09585   0.09863   0.10230
 Alpha virt. eigenvalues --    0.10328   0.11349   0.12048   0.12244   0.12847
 Alpha virt. eigenvalues --    0.13269   0.13738   0.14759   0.15051   0.15528
 Alpha virt. eigenvalues --    0.16132   0.16863   0.17388   0.17563   0.18010
 Alpha virt. eigenvalues --    0.18505   0.18739   0.18924   0.19749   0.19906
 Alpha virt. eigenvalues --    0.20398   0.20943   0.20996   0.21354   0.22197
 Alpha virt. eigenvalues --    0.22286   0.22579   0.23163   0.23525   0.24087
 Alpha virt. eigenvalues --    0.24760   0.25318   0.25744   0.25981   0.26426
 Alpha virt. eigenvalues --    0.26570   0.26894   0.27226   0.28002   0.28380
 Alpha virt. eigenvalues --    0.28825   0.29430   0.29873   0.30477   0.30789
 Alpha virt. eigenvalues --    0.31168   0.31755   0.32209   0.32300   0.33138
 Alpha virt. eigenvalues --    0.33598   0.34179   0.34601   0.34952   0.35501
 Alpha virt. eigenvalues --    0.36223   0.36592   0.36899   0.37271   0.37754
 Alpha virt. eigenvalues --    0.37808   0.38631   0.39602   0.40408   0.40642
 Alpha virt. eigenvalues --    0.40877   0.41278   0.41650   0.42220   0.42893
 Alpha virt. eigenvalues --    0.43795   0.44154   0.45424   0.46069   0.46444
 Alpha virt. eigenvalues --    0.47158   0.47402   0.47610   0.48539   0.49456
 Alpha virt. eigenvalues --    0.49696   0.50935   0.51274   0.52354   0.52737
 Alpha virt. eigenvalues --    0.53409   0.54357   0.55093   0.55969   0.56766
 Alpha virt. eigenvalues --    0.57923   0.58773   0.59302   0.60875   0.61390
 Alpha virt. eigenvalues --    0.62684   0.63258   0.66539   0.67371   0.68450
 Alpha virt. eigenvalues --    0.68923   0.69348   0.70391   0.70890   0.73112
 Alpha virt. eigenvalues --    0.74967   0.75709   0.76551   0.79209   0.80280
 Alpha virt. eigenvalues --    0.81996   0.83680   0.84556   0.85095   0.85633
 Alpha virt. eigenvalues --    0.88640   0.89078   0.91006   0.91360   0.92187
 Alpha virt. eigenvalues --    0.93084   0.94268   0.95822   0.97043   0.98952
 Alpha virt. eigenvalues --    1.00976   1.01661   1.02532   1.03215   1.03306
 Alpha virt. eigenvalues --    1.03860   1.04800   1.05404   1.06008   1.07212
 Alpha virt. eigenvalues --    1.08711   1.09968   1.10327   1.11079   1.11195
 Alpha virt. eigenvalues --    1.12381   1.12966   1.14160   1.15040   1.16790
 Alpha virt. eigenvalues --    1.17549   1.19199   1.20153   1.22006   1.23008
 Alpha virt. eigenvalues --    1.23853   1.25097   1.26896   1.27644   1.28804
 Alpha virt. eigenvalues --    1.30015   1.31774   1.32913   1.38323   1.39345
 Alpha virt. eigenvalues --    1.41320   1.43027   1.44012   1.46591   1.50033
 Alpha virt. eigenvalues --    1.54054   1.55612   1.60905   1.61702   1.71527
 Alpha virt. eigenvalues --    1.75284   1.80328   1.85601   1.92787   1.97338
 Alpha virt. eigenvalues --    2.01528   2.09820   2.25216
          Condensed to atoms (all electrons):
               1          2          3          4          5          6
     1  C    5.250563   0.148748   0.152410  -0.013112  -0.018501  -0.014872
     2  C    0.148748   5.529141   0.130627  -0.011444  -0.019135   0.390381
     3  C    0.152410   0.130627   5.606383   0.349648   0.377809  -0.025517
     4  H   -0.013112  -0.011444   0.349648   0.437318  -0.009653   0.000933
     5  H   -0.018501  -0.019135   0.377809  -0.009653   0.430941  -0.003429
     6  H   -0.014872   0.390381  -0.025517   0.000933  -0.003429   0.424446
     7  H   -0.013778   0.351610  -0.015891  -0.004020   0.000801  -0.007261
     8  H    0.372952  -0.015529  -0.035061  -0.000745   0.000983   0.001098
     9  N    0.000003  -0.000011   0.000000   0.000000   0.000000  -0.000001
    10  C   -0.000001  -0.000001   0.000000   0.000000   0.000000   0.000000
    11  C    0.000000   0.000000   0.000000   0.000000   0.000000   0.000000
    12  N    0.000000   0.000000   0.000000   0.000000   0.000000   0.000000
    13  C    0.000027  -0.000086   0.000001   0.000000   0.000000   0.000051
    14  C   -0.000011   0.000002   0.000000   0.000000   0.000000   0.000001
    15  H    0.000000   0.000000   0.000000   0.000000   0.000000   0.000000
    16  H    0.000000   0.000000   0.000000   0.000000   0.000000   0.000000
    17  H    0.000000   0.000000   0.000000   0.000000   0.000000   0.000000
    18  H    0.000003   0.000004   0.000000   0.000000   0.000000  -0.000001
    19  H   -0.000005   0.000075   0.000012   0.000000   0.000000   0.000022
    20  H    0.000001   0.000000   0.000000   0.000000   0.000000   0.000000
    21  H    0.000000   0.000000   0.000000   0.000000   0.000000   0.000000
    22  H    0.000000   0.000000   0.000000   0.000000   0.000000   0.000000
    23  O    0.000003   0.000000  -0.000001   0.000000   0.000000   0.000000
    24  O    0.000004   0.000000  -0.000002   0.000000   0.000000   0.000000
    25  O    0.000292   0.000003  -0.000012   0.000000   0.000040   0.000000
    26  N    0.278270  -0.032874  -0.021873   0.000593  -0.006691  -0.004504
    27  C   -0.023244  -0.016749   0.006294   0.000028  -0.000352   0.000099
    28  C    0.001846   0.021875  -0.010536  -0.000024   0.000579   0.000846
    29  C    0.005613   0.003461  -0.002867   0.000010   0.000117   0.000196
    30  C   -0.066187  -0.011354   0.013293   0.000115   0.001785   0.000684
    31  C    0.003590  -0.001658   0.001920  -0.000060   0.000348  -0.000035
    32  C    0.000899   0.000293  -0.000167  -0.000002   0.000055  -0.000023
    33  C    0.000017   0.000166  -0.000085   0.000000   0.000007   0.000014
    34  C   -0.002034  -0.003569   0.000439   0.000001  -0.000011   0.000288
    35  C   -0.000063  -0.000073   0.000000   0.000000   0.000000  -0.000002
    36  C    0.000232   0.000039   0.000030   0.000001   0.000159   0.000000
    37  H   -0.002035   0.000629   0.000246   0.000050  -0.000800   0.000074
    38  H    0.000000   0.000000   0.000000   0.000000   0.000000   0.000000
    39  F    0.000000   0.000000   0.000000   0.000000   0.000000   0.000000
    40  C    0.000001   0.000000   0.000000   0.000000   0.000000   0.000000
    41  H    0.000000   0.000000   0.000000   0.000000   0.000000   0.000000
    42  H    0.000000   0.000005   0.000000   0.000000   0.000000   0.000000
    43  H    0.000000   0.000000   0.000000   0.000000   0.000000   0.000000
    44  O   -0.000660  -0.007919   0.002085   0.000031  -0.000041   0.000210
    45  C   -0.001889   0.002115  -0.000545   0.000009   0.000002   0.000052
    46  H    0.000015  -0.000039   0.000001   0.000000   0.000000   0.000001
    47  H   -0.000782  -0.000035  -0.000009   0.000000   0.000000   0.000000
    48  H    0.001767   0.000031   0.000034  -0.000001   0.000000  -0.000003
    49  H    0.000006  -0.000002   0.000000   0.000000   0.000000   0.000000
               7          8          9         10         11         12
     1  C   -0.013778   0.372952   0.000003  -0.000001   0.000000   0.000000
     2  C    0.351610  -0.015529  -0.000011  -0.000001   0.000000   0.000000
     3  C   -0.015891  -0.035061   0.000000   0.000000   0.000000   0.000000
     4  H   -0.004020  -0.000745   0.000000   0.000000   0.000000   0.000000
     5  H    0.000801   0.000983   0.000000   0.000000   0.000000   0.000000
     6  H   -0.007261   0.001098  -0.000001   0.000000   0.000000   0.000000
     7  H    0.428843  -0.002607   0.000001   0.000000   0.000000   0.000000
     8  H   -0.002607   0.450337   0.000000   0.000000   0.000000   0.000000
     9  N    0.000001   0.000000   6.932417   0.288704  -0.070717  -0.010625
    10  C    0.000000   0.000000   0.288704   5.285399   0.230008  -0.068795
    11  C    0.000000   0.000000  -0.070717   0.230008   5.433733   0.315847
    12  N    0.000000   0.000000  -0.010625  -0.068795   0.315847   6.825129
    13  C   -0.000010   0.000001   0.270840  -0.056997  -0.004220  -0.064778
    14  C    0.000002   0.000000  -0.038130  -0.005090  -0.070068   0.312878
    15  H    0.000000   0.000000  -0.000181   0.006846  -0.041677   0.318052
    16  H    0.000000   0.000000  -0.037224   0.360610  -0.034906   0.003307
    17  H    0.000000   0.000000  -0.057778   0.364864  -0.049514   0.002284
    18  H    0.000000   0.000000  -0.069167  -0.003708  -0.001677  -0.003666
    19  H    0.000016  -0.000002  -0.034003   0.006608  -0.000716   0.003605
    20  H    0.000000   0.000000  -0.000784   0.000527  -0.006603  -0.082822
    21  H    0.000000   0.000000   0.004111  -0.018329   0.348877  -0.036226
    22  H    0.000000   0.000000   0.001046  -0.052060   0.347131  -0.070369
    23  O    0.000000   0.000000   0.000000   0.000000   0.000000   0.000000
    24  O    0.000000   0.000000   0.000000   0.000000   0.000000   0.000000
    25  O    0.000000  -0.000001   0.000000   0.000000   0.000000   0.000000
    26  N    0.000516  -0.030818  -0.000010   0.000002   0.000000   0.000000
    27  C   -0.000207   0.000964  -0.058897  -0.001231  -0.001105  -0.000095
    28  C    0.001165   0.002160  -0.000425  -0.000415  -0.000042  -0.000002
    29  C    0.000019   0.000285   0.000634  -0.000180  -0.000009   0.000000
    30  C    0.000139   0.000505   0.000008  -0.000001   0.000000   0.000000
    31  C    0.000014  -0.000092  -0.000004   0.000000   0.000000   0.000000
    32  C    0.000001  -0.000009   0.000023   0.000004   0.000000   0.000000
    33  C    0.000003  -0.000010   0.006668  -0.000841   0.000120   0.000002
    34  C   -0.000142   0.000032   0.178802  -0.047603   0.000162  -0.001417
    35  C   -0.000005   0.000006  -0.036679  -0.007469   0.001410   0.000130
    36  C    0.000000   0.000000   0.000000   0.000000   0.000000   0.000000
    37  H   -0.000013   0.000414   0.000000   0.000000   0.000000   0.000000
    38  H    0.000000   0.000000   0.000000   0.000000   0.000000   0.000000
    39  F    0.000000   0.000000   0.001222   0.012369   0.000987   0.000005
    40  C    0.000000   0.000000   0.005884  -0.002918   0.008787  -0.053509
    41  H    0.000000   0.000000  -0.000068  -0.000041   0.000426   0.001907
    42  H    0.000000   0.000000   0.000028   0.000116  -0.000300   0.003529
    43  H    0.000000   0.000000  -0.000077   0.000010  -0.000149  -0.004868
    44  O    0.000208  -0.004174  -0.000567  -0.000550  -0.000040  -0.000009
    45  C   -0.000127   0.001433  -0.015099   0.000411   0.000374  -0.000204
    46  H   -0.000001   0.000025   0.011897   0.000511  -0.000163  -0.000211
    47  H    0.000006   0.000154   0.000241   0.000005  -0.000016   0.000003
    48  H    0.000010  -0.000326   0.000189  -0.000025  -0.000003  -0.000003
    49  H    0.000000   0.000000  -0.000121   0.000049   0.000000   0.000000
              13         14         15         16         17         18
     1  C    0.000027  -0.000011   0.000000   0.000000   0.000000   0.000003
     2  C   -0.000086   0.000002   0.000000   0.000000   0.000000   0.000004
     3  C    0.000001   0.000000   0.000000   0.000000   0.000000   0.000000
     4  H    0.000000   0.000000   0.000000   0.000000   0.000000   0.000000
     5  H    0.000000   0.000000   0.000000   0.000000   0.000000   0.000000
     6  H    0.000051   0.000001   0.000000   0.000000   0.000000  -0.000001
     7  H   -0.000010   0.000002   0.000000   0.000000   0.000000   0.000000
     8  H    0.000001   0.000000   0.000000   0.000000   0.000000   0.000000
     9  N    0.270840  -0.038130  -0.000181  -0.037224  -0.057778  -0.069167
    10  C   -0.056997  -0.005090   0.006846   0.360610   0.364864  -0.003708
    11  C   -0.004220  -0.070068  -0.041677  -0.034906  -0.049514  -0.001677
    12  N   -0.064778   0.312878   0.318052   0.003307   0.002284  -0.003666
    13  C    5.443099   0.254233   0.007132   0.006525   0.000038   0.358476
    14  C    0.254233   5.166434  -0.038425  -0.000105  -0.000933  -0.045566
    15  H    0.007132  -0.038425   0.476258  -0.000093  -0.000128   0.000029
    16  H    0.006525  -0.000105  -0.000093   0.511185  -0.018659   0.000054
    17  H    0.000038  -0.000933  -0.000128  -0.018659   0.519724   0.005442
    18  H    0.358476  -0.045566   0.000029   0.000054   0.005442   0.547439
    19  H    0.346435  -0.009355  -0.000099  -0.000063   0.000013  -0.026241
    20  H   -0.064392   0.344602  -0.000515   0.000158   0.000207   0.005201
    21  H   -0.000957   0.008316  -0.003906  -0.000241  -0.002706   0.000079
    22  H   -0.001355  -0.009392  -0.000853   0.000593   0.005005   0.000210
    23  O    0.000000   0.000000   0.000000   0.000000   0.000000   0.000000
    24  O    0.000000   0.000000   0.000000   0.000000   0.000000   0.000000
    25  O    0.000000   0.000000   0.000000   0.000000   0.000000   0.000000
    26  N    0.000007   0.000001   0.000000   0.000000   0.000000  -0.000001
    27  C   -0.016458  -0.005343   0.000000   0.000369  -0.000130   0.006322
    28  C   -0.003985  -0.000393   0.000000   0.000054   0.000015   0.000422
    29  C   -0.000169  -0.000006   0.000000  -0.000030   0.000021  -0.000012
    30  C    0.000003   0.000000   0.000000   0.000000   0.000000   0.000000
    31  C    0.000000   0.000000   0.000000   0.000000   0.000000   0.000000
    32  C   -0.000021   0.000000   0.000000   0.000000   0.000000   0.000000
    33  C    0.000617   0.000020   0.000000  -0.000301  -0.000050  -0.000178
    34  C   -0.048654   0.000600   0.000053   0.000398  -0.000456   0.007999
    35  C   -0.003515   0.000420  -0.000002  -0.000285   0.002384  -0.002221
    36  C    0.000000   0.000000   0.000000   0.000000   0.000000   0.000000
    37  H    0.000000   0.000000   0.000000   0.000000   0.000000   0.000000
    38  H    0.000000   0.000000   0.000000   0.000000   0.000000   0.000000
    39  F   -0.000251  -0.000014   0.000000  -0.005320  -0.003463  -0.000018
    40  C   -0.042804   0.246329  -0.005681  -0.000028   0.000299  -0.004503
    41  H   -0.007698  -0.038316  -0.000758   0.000000   0.000013   0.004451
    42  H   -0.003848  -0.025109   0.000051   0.000000   0.000001   0.000306
    43  H    0.004570  -0.022214   0.002790   0.000000  -0.000001   0.000079
    44  O   -0.011130  -0.001371   0.000000   0.000005  -0.000010   0.000610
    45  C   -0.007429   0.003450   0.000004   0.000047  -0.000042   0.000068
    46  H   -0.001163  -0.000235  -0.000004  -0.000041   0.000036   0.000023
    47  H   -0.000375   0.000019   0.000000   0.000000   0.000000  -0.000001
    48  H    0.000152  -0.000023   0.000000   0.000002   0.000000   0.000002
    49  H   -0.000005   0.000000   0.000000   0.000002   0.000002   0.000000
              19         20         21         22         23         24
     1  C   -0.000005   0.000001   0.000000   0.000000   0.000003   0.000004
     2  C    0.000075   0.000000   0.000000   0.000000   0.000000   0.000000
     3  C    0.000012   0.000000   0.000000   0.000000  -0.000001  -0.000002
     4  H    0.000000   0.000000   0.000000   0.000000   0.000000   0.000000
     5  H    0.000000   0.000000   0.000000   0.000000   0.000000   0.000000
     6  H    0.000022   0.000000   0.000000   0.000000   0.000000   0.000000
     7  H    0.000016   0.000000   0.000000   0.000000   0.000000   0.000000
     8  H   -0.000002   0.000000   0.000000   0.000000   0.000000   0.000000
     9  N   -0.034003  -0.000784   0.004111   0.001046   0.000000   0.000000
    10  C    0.006608   0.000527  -0.018329  -0.052060   0.000000   0.000000
    11  C   -0.000716  -0.006603   0.348877   0.347131   0.000000   0.000000
    12  N    0.003605  -0.082822  -0.036226  -0.070369   0.000000   0.000000
    13  C    0.346435  -0.064392  -0.000957  -0.001355   0.000000   0.000000
    14  C   -0.009355   0.344602   0.008316  -0.009392   0.000000   0.000000
    15  H   -0.000099  -0.000515  -0.003906  -0.000853   0.000000   0.000000
    16  H   -0.000063   0.000158  -0.000241   0.000593   0.000000   0.000000
    17  H    0.000013   0.000207  -0.002706   0.005005   0.000000   0.000000
    18  H   -0.026241   0.005201   0.000079   0.000210   0.000000   0.000000
    19  H    0.469828  -0.000753  -0.000006   0.000167   0.000000   0.000000
    20  H   -0.000753   0.652569  -0.000059   0.011885   0.000000   0.000000
    21  H   -0.000006  -0.000059   0.521131  -0.034047   0.000000   0.000000
    22  H    0.000167   0.011885  -0.034047   0.625739   0.000000   0.000000
    23  O    0.000000   0.000000   0.000000   0.000000   7.786662  -0.006313
    24  O    0.000000   0.000000   0.000000   0.000000  -0.006313   8.085651
    25  O    0.000000   0.000000   0.000000   0.000000   0.000011  -0.084026
    26  N    0.000036   0.000000   0.000000   0.000000   0.000278   0.000008
    27  C   -0.006606   0.000479   0.000015  -0.000133  -0.000330  -0.000005
    28  C   -0.001566   0.000052   0.000000   0.000001  -0.008084  -0.000414
    29  C    0.000012   0.000001   0.000000   0.000000  -0.138250  -0.001041
    30  C    0.000002   0.000000   0.000000   0.000000   0.001104  -0.005458
    31  C    0.000000   0.000000   0.000000   0.000000  -0.071770  -0.028426
    32  C    0.000000   0.000000   0.000000   0.000000   0.676760   0.001843
    33  C    0.000051  -0.000002  -0.000001  -0.000002   0.032113   0.000205
    34  C   -0.001443  -0.000438   0.000179   0.000478   0.000171   0.000000
    35  C    0.000994  -0.000112  -0.000040  -0.000066   0.002218   0.000001
    36  C    0.000000   0.000000   0.000000   0.000000  -0.007155   0.247113
    37  H    0.000000   0.000000   0.000000   0.000000  -0.000060   0.000357
    38  H    0.000000   0.000000   0.000000   0.000000   0.000371   0.244937
    39  F   -0.000007   0.000000   0.000011  -0.000003   0.000005   0.000000
    40  C   -0.001403  -0.057401  -0.000560   0.000719   0.000000   0.000000
    41  H    0.000354   0.004191   0.000004   0.000011   0.000000   0.000000
    42  H    0.001674   0.001564   0.000001   0.000014   0.000000   0.000000
    43  H   -0.000090  -0.002633   0.000001  -0.000020   0.000000   0.000000
    44  O    0.002707  -0.000149   0.000000  -0.000014   0.000000   0.000000
    45  C   -0.001247   0.001832   0.000001  -0.000461   0.000000   0.000000
    46  H    0.000341   0.001569   0.000010   0.001412   0.000000   0.000000
    47  H   -0.000119  -0.000123   0.000000   0.000003   0.000000   0.000000
    48  H    0.000017   0.000090   0.000000   0.000015   0.000000   0.000000
    49  H    0.000000   0.000000   0.000000   0.000000   0.012608   0.000000
              25         26         27         28         29         30
     1  C    0.000292   0.278270  -0.023244   0.001846   0.005613  -0.066187
     2  C    0.000003  -0.032874  -0.016749   0.021875   0.003461  -0.011354
     3  C   -0.000012  -0.021873   0.006294  -0.010536  -0.002867   0.013293
     4  H    0.000000   0.000593   0.000028  -0.000024   0.000010   0.000115
     5  H    0.000040  -0.006691  -0.000352   0.000579   0.000117   0.001785
     6  H    0.000000  -0.004504   0.000099   0.000846   0.000196   0.000684
[...]
    35  C    0.000000   0.000458  -0.138106  -0.079411  -0.078067   0.000258
    36  C    0.592447   0.008293  -0.000626  -0.001749  -0.024591  -0.017634
    37  H    0.011952  -0.034534   0.000188  -0.002564  -0.000956   0.318697
    38  H    0.002965   0.000001   0.000000   0.000009   0.000043  -0.000376
    39  F    0.000000   0.000000  -0.001151  -0.000577  -0.001928   0.000000
    40  C    0.000000   0.000000   0.000024  -0.000001   0.000000   0.000000
    41  H    0.000000   0.000000   0.000012   0.000000   0.000000   0.000000
    42  H    0.000000   0.000000  -0.000032   0.000000   0.000000   0.000000
    43  H    0.000000   0.000000   0.000002   0.000000   0.000000   0.000000
    44  O    0.000000   0.005121   0.316584  -0.087731  -0.005068  -0.000301
    45  C    0.000000  -0.001077  -0.130493  -0.007233  -0.000185  -0.000514
    46  H    0.000000   0.000054  -0.007424  -0.002044  -0.000044   0.000002
    47  H    0.000000   0.000047   0.006249  -0.000207  -0.000012   0.000012
    48  H    0.000000  -0.000597  -0.005414   0.008537   0.000373   0.000081
    49  H    0.000000  -0.000063   0.001007   0.001143  -0.009346  -0.000099
              31         32         33         34         35         36
     1  C    0.003778   0.000818   0.000039  -0.002586  -0.000072   0.000187
     2  C   -0.001598   0.000356   0.000121  -0.003985  -0.000105   0.000039
     3  C    0.001552  -0.000251  -0.000077   0.000437   0.000002   0.000025
     4  H   -0.000082  -0.000003   0.000000   0.000001   0.000000   0.000000
     5  H    0.000479   0.000081   0.000006  -0.000010   0.000000   0.000146
     6  H   -0.000051  -0.000014   0.000034   0.000330  -0.000003  -0.000001
     7  H    0.000017   0.000001   0.000003  -0.000145  -0.000007   0.000000
     8  H   -0.000066   0.000003  -0.000006   0.000080   0.000007   0.000000
     9  N   -0.000003   0.000039   0.007658   0.172225  -0.025830   0.000000
    10  C    0.000000   0.000001  -0.000423  -0.055894  -0.003133   0.000000
    11  C    0.000000   0.000000   0.000130  -0.000475   0.001292   0.000000
    12  N    0.000000   0.000000   0.000003  -0.001237   0.000150   0.000000
    13  C    0.000000  -0.000016   0.000831  -0.041326  -0.002545   0.000000
    14  C    0.000000   0.000000  -0.000002  -0.005397   0.000269   0.000000
    15  H    0.000000   0.000000   0.000000   0.000042  -0.000002   0.000000
    16  H    0.000000   0.000000  -0.000122  -0.000240   0.000676   0.000000
    17  H    0.000000   0.000000  -0.000036   0.000226   0.001963   0.000000
    18  H    0.000000   0.000000  -0.000091   0.009405  -0.001549   0.000000
    19  H    0.000000   0.000000   0.000060  -0.000201   0.001292   0.000000
    20  H    0.000000   0.000000  -0.000002   0.000423  -0.000054   0.000000
    21  H    0.000000   0.000000  -0.000001   0.000145  -0.000045   0.000000
    22  H    0.000000   0.000000  -0.000001   0.001254   0.000082   0.000000
    23  O   -0.075986   0.678877   0.031424   0.000118   0.001999  -0.006330
    24  O   -0.028180   0.003149   0.000167   0.000000   0.000001   0.253704
    25  O   -0.067841  -0.004320   0.000026   0.000000   0.000000   0.592447
    26  N   -0.055168  -0.008630   0.011479  -0.001650   0.000458   0.008293
    27  C   -0.006619  -0.006353  -0.118269   0.265127  -0.138106  -0.000626
    28  C    0.008626  -0.030426  -0.167202  -0.153068  -0.079411  -0.001749
    29  C   -0.160543   0.055847   0.454752  -0.125752  -0.078067  -0.024591
    30  C    0.265600  -0.080745   0.004611  -0.000771   0.000258  -0.017634
    31  C    5.926681   0.047474  -0.020701   0.000275  -0.000747   0.080901
    32  C    0.047474   5.284375  -0.023939  -0.000676  -0.012645  -0.040696
    33  C   -0.020701  -0.023939   5.974507  -0.141350   0.378452   0.000705
    34  C    0.000275  -0.000676  -0.141350   5.782151   0.237925  -0.000018
    35  C   -0.000747  -0.012645   0.378452   0.237925   5.203464   0.000024
    36  C    0.080901  -0.040696   0.000705  -0.000018   0.000024   4.991330
    37  H   -0.021133   0.003296   0.000020   0.000000   0.000002  -0.005014
    38  H    0.004897   0.001519  -0.000005   0.000000   0.000000  -0.028822
    39  F   -0.000004  -0.000040  -0.062464  -0.038810   0.284718   0.000000
    40  C    0.000000   0.000000   0.000000  -0.000386   0.000055   0.000000
    41  H    0.000000   0.000000   0.000000  -0.000006  -0.000001   0.000000
    42  H    0.000000   0.000000   0.000000   0.000059   0.000000   0.000000
    43  H    0.000000   0.000000   0.000000  -0.000003   0.000000   0.000000
    44  O   -0.000057  -0.000210  -0.000312  -0.093279   0.000280   0.000000
    45  C   -0.000073  -0.000007   0.000281  -0.001530   0.000427  -0.000001
    46  H    0.000001  -0.000004   0.000100   0.009769  -0.000061   0.000000
    47  H    0.000000  -0.000001  -0.000005  -0.001434  -0.000033   0.000000
    48  H   -0.000001   0.000041  -0.000034  -0.001579  -0.000002   0.000000
    49  H    0.002928   0.006462   0.315983  -0.003229  -0.043727  -0.000015
              37         38         39         40         41         42
     1  C   -0.002485   0.000000   0.000000   0.000001   0.000000   0.000000
     2  C    0.000839   0.000000   0.000000   0.000000   0.000000   0.000007
     3  C   -0.000266   0.000000   0.000000   0.000000   0.000000   0.000000
     4  H   -0.000024   0.000000   0.000000   0.000000   0.000000   0.000000
     5  H   -0.000780   0.000000   0.000000   0.000000   0.000000   0.000000
     6  H    0.000050   0.000000   0.000000   0.000000   0.000000   0.000000
     7  H   -0.000010   0.000000   0.000000   0.000000   0.000000   0.000000
     8  H    0.000384   0.000000   0.000000   0.000000   0.000000   0.000000
     9  N    0.000000   0.000000   0.000980   0.006370  -0.000081   0.000051
    10  C    0.000000   0.000000   0.012465  -0.002736  -0.000011   0.000096
    11  C    0.000000   0.000000   0.000696   0.008659   0.000399  -0.000268
    12  N    0.000000   0.000000   0.000002  -0.050472   0.001293   0.003514
    13  C    0.000000   0.000000  -0.000298  -0.044541  -0.007857  -0.004064
    14  C    0.000000   0.000000  -0.000015   0.246536  -0.038928  -0.024516
    15  H    0.000000   0.000000   0.000000  -0.006162  -0.000751   0.000080
    16  H    0.000000   0.000000  -0.003522  -0.000030   0.000000   0.000000
    17  H    0.000000   0.000000  -0.001960   0.000294   0.000013   0.000001
    18  H    0.000000   0.000000  -0.000004  -0.005815   0.005003   0.000421
    19  H    0.000000   0.000000  -0.000007  -0.000871   0.000360   0.001701
    20  H    0.000000   0.000000   0.000000  -0.057327   0.004257   0.001437
    21  H    0.000000   0.000000   0.000005  -0.000574   0.000005   0.000001
    22  H    0.000000   0.000000  -0.000001   0.000703   0.000010   0.000013
    23  O   -0.000055   0.000236   0.000004   0.000000   0.000000   0.000000
    24  O    0.000332   0.250072   0.000000   0.000000   0.000000   0.000000
    25  O    0.011952   0.002965   0.000000   0.000000   0.000000   0.000000
    26  N   -0.034534   0.000001   0.000000   0.000000   0.000000   0.000000
    27  C    0.000188   0.000000  -0.001151   0.000024   0.000012  -0.000032
    28  C   -0.002564   0.000009  -0.000577  -0.000001   0.000000   0.000000
    29  C   -0.000956   0.000043  -0.001928   0.000000   0.000000   0.000000
    30  C    0.318697  -0.000376   0.000000   0.000000   0.000000   0.000000
    31  C   -0.021133   0.004897  -0.000004   0.000000   0.000000   0.000000
    32  C    0.003296   0.001519  -0.000040   0.000000   0.000000   0.000000
    33  C    0.000020  -0.000005  -0.062464   0.000000   0.000000   0.000000
    34  C    0.000000   0.000000  -0.038810  -0.000386  -0.000006   0.000059
    35  C    0.000002   0.000000   0.284718   0.000055  -0.000001   0.000000
    36  C   -0.005014  -0.028822   0.000000   0.000000   0.000000   0.000000
    37  H    0.437472   0.000001   0.000000   0.000000   0.000000   0.000000
    38  H    0.000001   0.362411   0.000000   0.000000   0.000000   0.000000
    39  F    0.000000   0.000000   9.068363   0.000000   0.000000   0.000000
    40  C    0.000000   0.000000   0.000000   5.525755   0.372543   0.361900
    41  H    0.000000   0.000000   0.000000   0.372543   0.486483  -0.019478
    42  H    0.000000   0.000000   0.000000   0.361900  -0.019478   0.493768
    43  H    0.000000   0.000000   0.000000   0.364977  -0.022773  -0.022202
    44  O   -0.000004   0.000000  -0.000016  -0.000002   0.000000  -0.000012
    45  C   -0.000003   0.000000  -0.000006  -0.000304   0.000006   0.000034
    46  H    0.000000   0.000000   0.000003   0.000050   0.000000   0.000001
    47  H    0.000000   0.000000   0.000000   0.000006   0.000000   0.000001
    48  H   -0.000002   0.000000   0.000000  -0.000001   0.000000   0.000000
    49  H    0.000000   0.000000   0.000353   0.000000   0.000000   0.000000
              43         44         45         46         47         48
     1  C    0.000000   0.001822  -0.001667   0.000048  -0.000932   0.002176
     2  C    0.000000  -0.006738   0.001744  -0.000042  -0.000028   0.000089
     3  C    0.000000   0.001639  -0.000468   0.000002  -0.000005   0.000039
     4  H    0.000000   0.000031   0.000009   0.000000   0.000000  -0.000001
     5  H    0.000000  -0.000034   0.000003   0.000000   0.000000   0.000000
     6  H    0.000000   0.000384   0.000045   0.000001   0.000000  -0.000003
     7  H    0.000000   0.000270  -0.000089   0.000000   0.000001   0.000009
     8  H    0.000000  -0.004130   0.001535   0.000037   0.000189  -0.000543
     9  N   -0.000082   0.000048  -0.004460   0.004972   0.000014   0.000252
    10  C    0.000015  -0.000672   0.000068   0.000445   0.000008  -0.000009
    11  C   -0.000140  -0.000117   0.000213   0.000025  -0.000006  -0.000007
    12  N   -0.005108   0.000002  -0.000389  -0.000231   0.000003  -0.000004
    13  C    0.004553  -0.009885  -0.005889   0.000242  -0.000391   0.000014
    14  C   -0.020785   0.001955   0.003067  -0.001286   0.000029   0.000046
    15  H    0.002944   0.000000   0.000007  -0.000003   0.000000   0.000000
    16  H    0.000000   0.000000   0.000018  -0.000007   0.000000   0.000001
    17  H   -0.000001  -0.000009  -0.000010   0.000022   0.000000   0.000000
    18  H    0.000067   0.000345   0.000107   0.000013  -0.000002   0.000001
    19  H   -0.000095   0.000726  -0.000859   0.000111   0.000003   0.000004
    20  H   -0.002661  -0.000819   0.003517   0.001223  -0.000281   0.000122
    21  H    0.000000  -0.000001   0.000008   0.000010   0.000000   0.000000
    22  H   -0.000022  -0.000036  -0.000393   0.001739  -0.000003   0.000020
    23  O    0.000000   0.000000   0.000000   0.000000   0.000000   0.000000
    24  O    0.000000   0.000000   0.000000   0.000000   0.000000   0.000000
    25  O    0.000000   0.000000   0.000000   0.000000   0.000000   0.000000
    26  N    0.000000   0.005121  -0.001077   0.000054   0.000047  -0.000597
    27  C    0.000002   0.316584  -0.130493  -0.007424   0.006249  -0.005414
    28  C    0.000000  -0.087731  -0.007233  -0.002044  -0.000207   0.008537
    29  C    0.000000  -0.005068  -0.000185  -0.000044  -0.000012   0.000373
    30  C    0.000000  -0.000301  -0.000514   0.000002   0.000012   0.000081
    31  C    0.000000  -0.000057  -0.000073   0.000001   0.000000  -0.000001
    32  C    0.000000  -0.000210  -0.000007  -0.000004  -0.000001   0.000041
    33  C    0.000000  -0.000312   0.000281   0.000100  -0.000005  -0.000034
    34  C   -0.000003  -0.093279  -0.001530   0.009769  -0.001434  -0.001579
    35  C    0.000000   0.000280   0.000427  -0.000061  -0.000033  -0.000002
    36  C    0.000000   0.000000  -0.000001   0.000000   0.000000   0.000000
    37  H    0.000000  -0.000004  -0.000003   0.000000   0.000000  -0.000002
    38  H    0.000000   0.000000   0.000000   0.000000   0.000000   0.000000
    39  F    0.000000  -0.000016  -0.000006   0.000003   0.000000   0.000000
    40  C    0.364977  -0.000002  -0.000304   0.000050   0.000006  -0.000001
    41  H   -0.022773   0.000000   0.000006   0.000000   0.000000   0.000000
    42  H   -0.022202  -0.000012   0.000034   0.000001   0.000001   0.000000
    43  H    0.497244   0.000000  -0.000004   0.000000   0.000000   0.000000
    44  O    0.000000   8.153727   0.231099  -0.044631  -0.033189  -0.046026
    45  C   -0.000004   0.231099   5.349453   0.352909   0.370753   0.352108
    46  H    0.000000  -0.044631   0.352909   0.501041  -0.021941  -0.031901
    47  H    0.000000  -0.033189   0.370753  -0.021941   0.473662  -0.024577
    48  H    0.000000  -0.046026   0.352108  -0.031901  -0.024577   0.525113
    49  H    0.000000   0.000001   0.000001   0.000000   0.000000   0.000000
              49
     1  C    0.000006
     2  C   -0.000002
     3  C    0.000000
     4  H    0.000000
     5  H    0.000000
     6  H    0.000000
     7  H    0.000000
     8  H    0.000000
     9  N   -0.000105
    10  C    0.000025
    11  C    0.000000
    12  N    0.000000
    13  C   -0.000004
    14  C    0.000000
    15  H    0.000000
    16  H    0.000005
    17  H    0.000001
    18  H    0.000000
    19  H    0.000000
    20  H    0.000000
    21  H    0.000000
    22  H    0.000000
    23  O    0.010374
    24  O    0.000000
    25  O    0.000000
    26  N   -0.000063
    27  C    0.001007
    28  C    0.001143
    29  C   -0.009346
    30  C   -0.000099
    31  C    0.002928
    32  C    0.006462
    33  C    0.315983
    34  C   -0.003229
    35  C   -0.043727
    36  C   -0.000015
    37  H    0.000000
    38  H    0.000000
    39  F    0.000353
    40  C    0.000000
    41  H    0.000000
    42  H    0.000000
    43  H    0.000000
    44  O    0.000001
    45  C    0.000001
    46  H    0.000000
    47  H    0.000000
    48  H    0.000000
    49  H    0.418381
 Mulliken charges:
               1
     1  C   -0.061368
     2  C   -0.467399
     3  C   -0.522844
     4  H    0.250615
     5  H    0.244507
     6  H    0.237630
     7  H    0.261559
     8  H    0.258990
     9  N   -0.257763
    10  C   -0.305066
    11  C   -0.388185
    12  N   -0.403857
    13  C   -0.333206
    14  C   -0.006471
    15  H    0.289798
    16  H    0.215262
    17  H    0.230533
    18  H    0.214551
    19  H    0.234651
    20  H    0.195057
    21  H    0.214307
    22  H    0.168920
    23  O   -0.285154
    24  O   -0.454296
    25  O   -0.351447
    26  N   -0.230746
    27  C    0.194138
    28  C    0.213470
    29  C    0.239328
    30  C   -0.291766
    31  C    0.095644
    32  C    0.126638
    33  C   -0.646350
    34  C    0.195052
    35  C    0.272347
    36  C    0.197694
    37  H    0.294599
    38  H    0.407049
    39  F   -0.256785
    40  C   -0.718650
    41  H    0.219503
    42  H    0.207486
    43  H    0.204078
    44  O   -0.380756
    45  C   -0.511757
    46  H    0.236800
    47  H    0.232067
    48  H    0.221676
    49  H    0.299921
 Sum of Mulliken charges =   0.00000
 Mulliken charges with hydrogens summed into heavy atoms:
               1
     1  C    0.197622
     2  C    0.031790
     3  C   -0.027723
     9  N   -0.257763
    10  C    0.140729
    11  C   -0.004958
    12  N   -0.114059
    13  C    0.115996
    14  C    0.188585
    23  O   -0.285154
    24  O   -0.047247
    25  O   -0.351447
    26  N   -0.230746
    27  C    0.194138
    28  C    0.213470
    29  C    0.239328
    30  C    0.002833
    31  C    0.095644
    32  C    0.126638
    33  C   -0.346429
    34  C    0.195052
    35  C    0.272347
    36  C    0.197694
    39  F   -0.256785
    40  C   -0.087584
    44  O   -0.380756
    45  C    0.178785
 Electronic spatial extent (au):  <R**2>=          11312.2245
 Charge=              0.0000 electrons
 Dipole moment (field-independent basis, Debye):
    X=             -6.4632    Y=              5.8856    Z=              2.8189  Tot=              9.1848
 Quadrupole moment (field-independent basis, Debye-Ang):
   XX=           -162.2863   YY=           -161.5168   ZZ=           -151.6903
   XY=              3.1419   XZ=             -6.5820   YZ=             -4.1946
 Traceless Quadrupole moment (field-independent basis, Debye-Ang):
   XX=             -3.7885   YY=             -3.0190   ZZ=              6.8075
   XY=              3.1419   XZ=             -6.5820   YZ=             -4.1946
 Octapole moment (field-independent basis, Debye-Ang**2):
  XXX=           -130.1038  YYY=             61.5965  ZZZ=             10.4291  XYY=            -41.0407
  XXY=            -12.4562  XXZ=             48.2270  XZZ=             -9.3657  YZZ=              3.0907
  YYZ=             18.9688  XYZ=             -7.6726
 Hexadecapole moment (field-independent basis, Debye-Ang**3):
 XXXX=         -10059.2586 YYYY=          -3033.6443 ZZZZ=           -671.4412 XXXY=           -494.6484
 XXXZ=           -175.8325 YYYX=            139.2277 YYYZ=              3.2632 ZZZX=              6.1263
 ZZZY=             39.7046 XXYY=          -2439.5609 XXZZ=          -1872.3151 YYZZ=           -628.8690
 XXYZ=           -123.1929 YYXZ=            -10.9015 ZZXY=             -9.0432
 N-N= 2.596387550330D+03 E-N=-8.232337905817D+03  KE= 1.294828336282D+03
 1\1\GINC-NODE043\FOpt\RM06\LANL2DZ\C19H22F1N3O4\SUPERCOMPUTO1\12-Aug-2
 020\0\\#opt M06/lanl2dz integral=ultrafine geom=connectivity\\Title Ca
 rd Required\\0,1\C,1.3263576242,2.5842280982,0.0747637236\C,0.74421245
 95,3.0424269607,-1.2401030768\C,2.1100382543,3.5469891319,-0.801905186
 7\H,2.2073706509,4.5689379195,-0.4543260762\H,2.9753062194,3.170690238
 8,-1.3388962696\H,0.7205508134,2.3168970714,-2.0479102747\H,-0.1128377
 354,3.7035001218,-1.199570623\H,0.8732295871,2.975541332,0.9786546491\
 N,-2.71942037,-0.7163777745,-0.1449801776\C,-3.6243008842,-1.820753252
 9,0.2100927444\C,-4.7967601616,-1.2567931648,1.0157069221\N,-5.4477688
 394,-0.2000282377,0.2437362184\C,-3.3790733176,0.3790940253,-0.8759577
 902\C,-4.5661183321,0.926376079,-0.0814958691\H,-6.362300945,0.0801948
 638,0.5898565433\H,-3.0821467798,-2.5596783678,0.8063691722\H,-4.01156
 17888,-2.3176437381,-0.692497581\H,-3.7638905361,-0.0075150292,-1.8370
 941495\H,-2.6588042317,1.1780868762,-1.0671892956\H,-4.1578407461,1.39
 85539103,0.8386273333\H,-5.5158693498,-2.0592490783,1.2129912253\H,-4.
 4081348753,-0.8921795333,1.989856458\O,3.4325238791,-2.5526080373,-0.4
 578819578\O,5.7945888267,-1.4417020319,0.5169097106\O,5.8731114909,0.8
 297769477,0.5712763856\N,1.7941240492,1.2037962348,0.1782529796\C,-0.4
 790925597,0.2163993707,0.0963774059\C,0.9274913752,0.0985438092,0.0035
 320383\C,1.503671191,-1.1737242848,-0.2249953939\C,3.1316238428,0.9820
 735293,0.3155916466\C,3.7516482583,-0.2429873216,0.2027848727\C,2.9704
 903287,-1.4214132683,-0.1808288885\C,0.6640282967,-2.2693559384,-0.480
 5658816\C,-1.3390765931,-0.8714151099,-0.1991049566\C,-0.700487161,-2.
 0985599182,-0.5047204378\C,5.205928585,-0.214459142,0.4316498777\H,3.7
 455510805,1.8567566878,0.5134226362\H,6.7599014657,-1.3367641385,0.666
 5501093\F,-1.4925086942,-3.1855087328,-0.8619128586\C,-5.328473836,1.9
 610327204,-0.8993975943\H,-5.7091632178,1.4978120421,-1.8178200166\H,-
 4.6811312143,2.8029748852,-1.1695246897\H,-6.1836903157,2.357941124,-0
 .3381217632\O,-1.0572184326,1.4008261071,0.5667939133\C,-1.3347651947,
 1.3551218797,1.9931014188\H,-2.0230419552,0.5312835699,2.224601598\H,-
 1.7984817667,2.3096415291,2.2486234682\H,-0.4006397709,1.2269206235,2.
 5593119566\H,1.1194753265,-3.2325725889,-0.6922271985\\Version=ES64L-G
 09RevD.01\State=1-A\HF=-1301.2230346\RMSD=5.078e-09\RMSF=8.945e-06\Dip
 ole=-2.5539483,2.3238852,1.0652378\Quadrupole=-2.6130417,-2.2534367,4.
 8664785,2.4031515,-5.0449004,-3.0662948\PG=C01 [X(C19H22F1N3O4)]\\@


 I SUPPOSE A BABY LLAMA HAS A MMAMA AND A PPOPA.
     -- RICHARD AMOUR
 Job cpu time:       0 days  6 hours 27 minutes 22.6 seconds.
 File lengths (MBytes):  RWF=     54 Int=      0 D2E=      0 Chk=      8 Scr=      1
 Normal termination of Gaussian 09 at Wed Aug 12 00:27:01 2020.
