 Entering Gaussian System, Link 0=g09
 Input=pazufloxacina.gjf
 Output=pazufloxacina.log
 Initial command:
 /usr/local/cluster_programs/g09/l1.exe "/tmp/scratch/63953.prometeo/Gau-26043.inp" -scrdir="/tmp/scratch/63953.prometeo/"
 Entering Link 1 = /usr/local/cluster_programs/g09/l1.exe PID=     26044.
  
 Copyright (c) 1988,1990,1992,1993,1995,1998,2003,2009,2013,
            Gaussian, Inc.  All Rights Reserved.
  
 This is part of the Gaussian(R) 09 program.  It is based on
 the Gaussian(R) 03 system (copyright 2003, Gaussian, Inc.),
 the Gaussian(R) 98 system (copyright 1998, Gaussian, Inc.),
 the Gaussian(R) 94 system (copyright 1995, Gaussian, Inc.),
 the Gaussian 92(TM) system (copyright 1992, Gaussian, Inc.),
 the Gaussian 90(TM) system (copyright 1990, Gaussian, Inc.),
 the Gaussian 88(TM) system (copyright 1988, Gaussian, Inc.),
 the Gaussian 86(TM) system (copyright 1986, Carnegie Mellon
 University), and the Gaussian 82(TM) system (copyright 1983,
 Carnegie Mellon University). Gaussian is a federally registered
 trademark of Gaussian, Inc.
  
 This software contains proprietary and confidential information,
 including trade secrets, belonging to Gaussian, Inc.
  
 This software is provided under written license and may be
 used, copied, transmitted, or stored only in accord with that
 written license.
  
 The following legend is applicable only to US Government
 contracts under FAR:
  
                    RESTRICTED RIGHTS LEGEND
  
 Use, reproduction and disclosure by the US Government is
 subject to restrictions as set forth in subparagraphs (a)
 and (c) of the Commercial Computer Software - Restricted
 Rights clause in FAR 52.227-19.
  
 Gaussian, Inc.
 340 Quinnipiac St., Bldg. 40, Wallingford CT 06492
  
  
 ---------------------------------------------------------------
 Warning -- This program may not be used in any manner that
 competes with the business of Gaussian, Inc. or will provide
 assistance to any competitor of Gaussian, Inc.  The licensee
 of this program is prohibited from giving any competitor of
 Gaussian, Inc. access to this program.  By using this program,
 the user acknowledges that Gaussian, Inc. is engaged in the
 business of creating and licensing software in the field of
 computational chemistry and represents and warrants to the
 licensee that it is not a competitor of Gaussian, Inc. and that
 it will not use this program in any manner prohibited above.
 ---------------------------------------------------------------
  

 Cite this work as:
 Gaussian 09, Revision D.01,
 M. J. Frisch, G. W. Trucks, H. B. Schlegel, G. E. Scuseria, 
 M. A. Robb, J. R. Cheeseman, G. Scalmani, V. Barone, B. Mennucci, 
 G. A. Petersson, H. Nakatsuji, M. Caricato, X. Li, H. P. Hratchian, 
 A. F. Izmaylov, J. Bloino, G. Zheng, J. L. Sonnenberg, M. Hada, 
 M. Ehara, K. Toyota, R. Fukuda, J. Hasegawa, M. Ishida, T. Nakajima, 
 Y. Honda, O. Kitao, H. Nakai, T. Vreven, J. A. Montgomery, Jr., 
 J. E. Peralta, F. Ogliaro, M. Bearpark, J. J. Heyd, E. Brothers, 
 K. N. Kudin, V. N. Staroverov, T. Keith, R. Kobayashi, J. Normand, 
 K. Raghavachari, A. Rendell, J. C. Burant, S. S. Iyengar, J. Tomasi, 
 M. Cossi, N. Rega, J. M. Millam, M. Klene, J. E. Knox, J. B. Cross, 
 V. Bakken, C. Adamo, J. Jaramillo, R. Gomperts, R. E. Stratmann, 
 O. Yazyev, A. J. Austin, R. Cammi, C. Pomelli, J. W. Ochterski, 
 R. L. Martin, K. Morokuma, V. G. Zakrzewski, G. A. Voth, 
 P. Salvador, J. J. Dannenberg, S. Dapprich, A. D. Daniels, 
 O. Farkas, J. B. Foresman, J. V. Ortiz, J. Cioslowski, 
 and D. J. Fox, Gaussian, Inc., Wallingford CT, 2013.
 
 ******************************************
 Gaussian 09:  ES64L-G09RevD.01 24-Apr-2013
                 6-Jul-2020 
 ******************************************
 %nprocshared=20
 Will use up to   20 processors via shared memory.
 -----------------------------------
 # opt b3lyp/3-21g geom=connectivity
 -----------------------------------
 1/14=-1,18=20,19=15,26=3,38=1,57=2/1,3;
 2/9=110,12=2,17=6,18=5,40=1/2;
 3/5=5,11=2,16=1,25=1,30=1,71=1,74=-5/1,2,3;
 4//1;
 5/5=2,38=5/2;
 6/7=2,8=2,9=2,10=2,28=1/1;
 7//1,2,3,16;
 1/14=-1,18=20,19=15,26=3/3(2);
 2/9=110/2;
 99//99;
 2/9=110/2;
 3/5=5,11=2,16=1,25=1,30=1,71=1,74=-5/1,2,3;
 4/5=5,16=3,69=1/1;
 5/5=2,38=5/2;
 7//1,2,3,16;
 1/14=-1,18=20,19=15,26=3/3(-5);
 2/9=110/2;
 6/7=2,8=2,9=2,10=2,19=2,28=1/1;
 99/9=1/99;
 -------------------
 Title Card Required
 -------------------
 Symbolic Z-matrix:
 Charge =  0 Multiplicity = 1
 F(PDBName=F1,ResName=MOL,ResNum=1) 0    -14.66    -8.551     8.755    L 
 O(PDBName=O2,ResName=MOL,ResNum=1) 0    -13.822   -13.205    8.307    L 
 O(PDBName=O3,ResName=MOL,ResNum=1) 0    -9.67     -8.814     8.527    L 
 O(PDBName=O4,ResName=MOL,ResNum=1) 0    -7.154    -9.933     8.657    L 
 O(PDBName=O5,ResName=MOL,ResNum=1) 0    -7.001    -12.159    8.266    L 
 N(PDBName=N6,ResName=MOL,ResNum=1) 0    -16.213   -11.537    9.84     L 
 N(PDBName=N7,ResName=MOL,ResNum=1) 0    -11.047   -12.693    8.321    L 
 C(PDBName=C8,ResName=MOL,ResNum=1) 0    -15.758   -11.186    8.508    L 
 C(PDBName=C9,ResName=MOL,ResNum=1) 0    -16.373   -11.826    7.274    L 
 C(PDBName=C10,ResName=MOL,ResNum=1) 0    -16.686   -10.395    7.63     L 
 C(PDBName=C11,ResName=MOL,ResNum=1) 0    -14.291   -10.881    8.482    L 
 C(PDBName=C12,ResName=MOL,ResNum=1) 0    -13.353   -11.913    8.375    L 
 C(PDBName=C13,ResName=MOL,ResNum=1) 0    -11.968   -11.643    8.379    L 
 C(PDBName=C14,ResName=MOL,ResNum=1) 0    -13.776   -9.581     8.608    L 
 C(PDBName=C15,ResName=MOL,ResNum=1) 0    -11.541   -14.077    8.425    L 
 C(PDBName=C16,ResName=MOL,ResNum=1) 0    -11.504   -10.319    8.468    L 
 C(PDBName=C17,ResName=MOL,ResNum=1) 0    -12.892   -14.132    7.724    L 
 C(PDBName=C18,ResName=MOL,ResNum=1) 0    -12.431   -9.28      8.583    L 
 C(PDBName=C19,ResName=MOL,ResNum=1) 0    -9.723    -12.432    8.334    L 
 C(PDBName=C20,ResName=MOL,ResNum=1) 0    -10.05    -9.995     8.471    L 
 C(PDBName=C21,ResName=MOL,ResNum=1) 0    -11.607   -14.537    9.88     L 
 C(PDBName=C22,ResName=MOL,ResNum=1) 0    -9.177    -11.169    8.4      L 
 C(PDBName=C23,ResName=MOL,ResNum=1) 0    -7.701    -11.152    8.423    L 
 H(PDBName=H24,ResName=MOL,ResNum=1) 0    -17.135   -12.583    7.455    L 
 H(PDBName=H25,ResName=MOL,ResNum=1) 0    -15.737   -12.013    6.409    L 
 H(PDBName=H26,ResName=MOL,ResNum=1) 0    -16.263   -9.606     7.012    L 
 H(PDBName=H27,ResName=MOL,ResNum=1) 0    -17.673   -10.161    8.031    L 
 H(PDBName=H28,ResName=MOL,ResNum=1) 0    -16.031   -12.526    10.055   L 
 H(PDBName=H29,ResName=MOL,ResNum=1) 0    -17.213   -11.346    9.976    L 
 H(PDBName=H30,ResName=MOL,ResNum=1) 0    -10.838   -14.712    7.863    L 
 H(PDBName=H31,ResName=MOL,ResNum=1) 0    -12.781   -13.907    6.65     L 
 H(PDBName=H32,ResName=MOL,ResNum=1) 0    -13.345   -15.124    7.836    L 
 H(PDBName=H33,ResName=MOL,ResNum=1) 0    -12.067   -8.257     8.665    L 
 H(PDBName=H34,ResName=MOL,ResNum=1) 0    -9.057    -13.295    8.297    L 
 H(PDBName=H35,ResName=MOL,ResNum=1) 0    -12.338   -13.945    10.447   L 
 H(PDBName=H36,ResName=MOL,ResNum=1) 0    -11.904   -15.593    9.927    L 
 H(PDBName=H37,ResName=MOL,ResNum=1) 0    -10.626   -14.434    10.363   L 
 H(PDBName=H38,ResName=MOL,ResNum=1) 0    -6.181    -10.088    8.66     L 
 
 Center=    -12.56807895    -11.81578947      8.48113158
 Residue   1 PDB Number     1_0 MOL charge    0.00000000 layers R        AvRTP=      0.00000000      0.00000000      0.00000000

 GradGradGradGradGradGradGradGradGradGradGradGradGradGradGradGradGradGrad
 Berny optimization.
 Initialization pass.
                           ----------------------------
                           !    Initial Parameters    !
                           ! (Angstroms and Degrees)  !
 --------------------------                            --------------------------
 ! Name  Definition              Value          Derivative Info.                !
 --------------------------------------------------------------------------------
 ! R1    R(1,14)                 1.3653         estimate D2E/DX2                !
 ! R2    R(2,12)                 1.3762         estimate D2E/DX2                !
 ! R3    R(2,17)                 1.4367         estimate D2E/DX2                !
 ! R4    R(3,20)                 1.2419         estimate D2E/DX2                !
 ! R5    R(4,23)                 1.3564         estimate D2E/DX2                !
 ! R6    R(4,38)                 0.9853         estimate D2E/DX2                !
 ! R7    R(5,23)                 1.2364         estimate D2E/DX2                !
 ! R8    R(6,8)                  1.4507         estimate D2E/DX2                !
 ! R9    R(6,28)                 1.0283         estimate D2E/DX2                !
 ! R10   R(6,29)                 1.0271         estimate D2E/DX2                !
 ! R11   R(7,13)                 1.3979         estimate D2E/DX2                !
 ! R12   R(7,15)                 1.4732         estimate D2E/DX2                !
 ! R13   R(7,19)                 1.3495         estimate D2E/DX2                !
 ! R14   R(8,9)                  1.5201         estimate D2E/DX2                !
 ! R15   R(8,10)                 1.5026         estimate D2E/DX2                !
 ! R16   R(8,11)                 1.4986         estimate D2E/DX2                !
 ! R17   R(9,10)                 1.5075         estimate D2E/DX2                !
 ! R18   R(9,24)                 1.0892         estimate D2E/DX2                !
 ! R19   R(9,25)                 1.0898         estimate D2E/DX2                !
 ! R20   R(10,26)                1.0878         estimate D2E/DX2                !
 ! R21   R(10,27)                1.0907         estimate D2E/DX2                !
 ! R22   R(11,12)                1.3987         estimate D2E/DX2                !
 ! R23   R(11,14)                1.404          estimate D2E/DX2                !
 ! R24   R(12,13)                1.4111         estimate D2E/DX2                !
 ! R25   R(13,16)                1.4058         estimate D2E/DX2                !
 ! R26   R(14,18)                1.3785         estimate D2E/DX2                !
 ! R27   R(15,17)                1.523          estimate D2E/DX2                !
 ! R28   R(15,21)                1.5274         estimate D2E/DX2                !
 ! R29   R(15,30)                1.1015         estimate D2E/DX2                !
 ! R30   R(16,18)                1.3972         estimate D2E/DX2                !
 ! R31   R(16,20)                1.4897         estimate D2E/DX2                !
 ! R32   R(17,31)                1.1029         estimate D2E/DX2                !
 ! R33   R(17,32)                1.0963         estimate D2E/DX2                !
 ! R34   R(18,33)                1.0889         estimate D2E/DX2                !
 ! R35   R(19,22)                1.3775         estimate D2E/DX2                !
 ! R36   R(19,34)                1.0907         estimate D2E/DX2                !
 ! R37   R(20,22)                1.4647         estimate D2E/DX2                !
 ! R38   R(21,35)                1.0983         estimate D2E/DX2                !
 ! R39   R(21,36)                1.098          estimate D2E/DX2                !
 ! R40   R(21,37)                1.0983         estimate D2E/DX2                !
 ! R41   R(22,23)                1.4763         estimate D2E/DX2                !
 ! A1    A(12,2,17)            113.9042         estimate D2E/DX2                !
 ! A2    A(23,4,38)            104.9151         estimate D2E/DX2                !
 ! A3    A(8,6,28)             111.664          estimate D2E/DX2                !
 ! A4    A(8,6,29)             112.4545         estimate D2E/DX2                !
 ! A5    A(28,6,29)            108.8731         estimate D2E/DX2                !
 ! A6    A(13,7,15)            118.8027         estimate D2E/DX2                !
 ! A7    A(13,7,19)            120.0471         estimate D2E/DX2                !
 ! A8    A(15,7,19)            120.663          estimate D2E/DX2                !
 ! A9    A(6,8,9)              121.1064         estimate D2E/DX2                !
 ! A10   A(6,8,10)             118.0466         estimate D2E/DX2                !
 ! A11   A(6,8,11)             111.8519         estimate D2E/DX2                !
 ! A12   A(9,8,11)             117.8829         estimate D2E/DX2                !
 ! A13   A(10,8,11)            119.1636         estimate D2E/DX2                !
 ! A14   A(8,9,24)             116.1517         estimate D2E/DX2                !
 ! A15   A(8,9,25)             118.7166         estimate D2E/DX2                !
 ! A16   A(10,9,24)            118.3741         estimate D2E/DX2                !
 ! A17   A(10,9,25)            118.1316         estimate D2E/DX2                !
 ! A18   A(24,9,25)            114.8914         estimate D2E/DX2                !
 ! A19   A(8,10,26)            118.2696         estimate D2E/DX2                !
 ! A20   A(8,10,27)            117.1921         estimate D2E/DX2                !
 ! A21   A(9,10,26)            118.2686         estimate D2E/DX2                !
 ! A22   A(9,10,27)            118.5779         estimate D2E/DX2                !
 ! A23   A(26,10,27)           113.8986         estimate D2E/DX2                !
 ! A24   A(8,11,12)            120.5075         estimate D2E/DX2                !
 ! A25   A(8,11,14)            123.0918         estimate D2E/DX2                !
 ! A26   A(12,11,14)           116.3637         estimate D2E/DX2                !
 ! A27   A(2,12,11)            117.9004         estimate D2E/DX2                !
 ! A28   A(2,12,13)            120.9495         estimate D2E/DX2                !
 ! A29   A(11,12,13)           121.1205         estimate D2E/DX2                !
 ! A30   A(7,13,12)            120.1875         estimate D2E/DX2                !
 ! A31   A(7,13,16)            119.5116         estimate D2E/DX2                !
 ! A32   A(12,13,16)           120.2889         estimate D2E/DX2                !
 ! A33   A(1,14,11)            118.0808         estimate D2E/DX2                !
 ! A34   A(1,14,18)            117.9679         estimate D2E/DX2                !
 ! A35   A(11,14,18)           123.9497         estimate D2E/DX2                !
 ! A36   A(7,15,17)            107.3905         estimate D2E/DX2                !
 ! A37   A(7,15,21)            111.3871         estimate D2E/DX2                !
 ! A38   A(7,15,30)            106.9511         estimate D2E/DX2                !
 ! A39   A(17,15,21)           112.9073         estimate D2E/DX2                !
 ! A40   A(17,15,30)           108.0883         estimate D2E/DX2                !
 ! A41   A(21,15,30)           109.8763         estimate D2E/DX2                !
 ! A42   A(13,16,18)           119.1178         estimate D2E/DX2                !
 ! A43   A(13,16,20)           121.8124         estimate D2E/DX2                !
 ! A44   A(18,16,20)           119.0579         estimate D2E/DX2                !
 ! A45   A(2,17,15)            111.3538         estimate D2E/DX2                !
 ! A46   A(2,17,31)            109.188          estimate D2E/DX2                !
 ! A47   A(2,17,32)            105.957          estimate D2E/DX2                !
 ! A48   A(15,17,31)           110.5826         estimate D2E/DX2                !
 ! A49   A(15,17,32)           110.6218         estimate D2E/DX2                !
 ! A50   A(31,17,32)           109.0064         estimate D2E/DX2                !
 ! A51   A(14,18,16)           119.1093         estimate D2E/DX2                !
 ! A52   A(14,18,33)           122.0002         estimate D2E/DX2                !
 ! A53   A(16,18,33)           118.8841         estimate D2E/DX2                !
 ! A54   A(7,19,22)            124.5157         estimate D2E/DX2                !
 ! A55   A(7,19,34)            116.4679         estimate D2E/DX2                !
 ! A56   A(22,19,34)           119.0145         estimate D2E/DX2                !
 ! A57   A(3,20,16)            120.3701         estimate D2E/DX2                !
 ! A58   A(3,20,22)            125.5932         estimate D2E/DX2                !
 ! A59   A(16,20,22)           114.0365         estimate D2E/DX2                !
 ! A60   A(15,21,35)           110.9896         estimate D2E/DX2                !
 ! A61   A(15,21,36)           110.0058         estimate D2E/DX2                !
 ! A62   A(15,21,37)           110.6148         estimate D2E/DX2                !
 ! A63   A(35,21,36)           108.4373         estimate D2E/DX2                !
 ! A64   A(35,21,37)           108.4756         estimate D2E/DX2                !
 ! A65   A(36,21,37)           108.2389         estimate D2E/DX2                !
 ! A66   A(19,22,20)           120.0629         estimate D2E/DX2                !
 ! A67   A(19,22,23)           114.0533         estimate D2E/DX2                !
 ! A68   A(20,22,23)           125.8677         estimate D2E/DX2                !
 ! A69   A(4,23,5)             121.7039         estimate D2E/DX2                !
 ! A70   A(4,23,22)            114.5963         estimate D2E/DX2                !
 ! A71   A(5,23,22)            123.6896         estimate D2E/DX2                !
 ! D1    D(17,2,12,11)         158.4759         estimate D2E/DX2                !
 ! D2    D(17,2,12,13)         -23.4808         estimate D2E/DX2                !
 ! D3    D(12,2,17,15)          53.4975         estimate D2E/DX2                !
 ! D4    D(12,2,17,31)         -68.8961         estimate D2E/DX2                !
 ! D5    D(12,2,17,32)         173.8358         estimate D2E/DX2                !
 ! D6    D(38,4,23,5)            0.0062         estimate D2E/DX2                !
 ! D7    D(38,4,23,22)         178.8912         estimate D2E/DX2                !
 ! D8    D(28,6,8,9)            63.5593         estimate D2E/DX2                !
 ! D9    D(28,6,8,10)          133.4601         estimate D2E/DX2                !
 ! D10   D(28,6,8,11)          -82.5869         estimate D2E/DX2                !
 ! D11   D(29,6,8,9)           -59.1772         estimate D2E/DX2                !
 ! D12   D(29,6,8,10)           10.7236         estimate D2E/DX2                !
 ! D13   D(29,6,8,11)          154.6766         estimate D2E/DX2                !
 ! D14   D(15,7,13,12)          -7.511          estimate D2E/DX2                !
 ! D15   D(15,7,13,16)         171.2352         estimate D2E/DX2                !
 ! D16   D(19,7,13,12)        -179.5575         estimate D2E/DX2                !
 ! D17   D(19,7,13,16)          -0.8113         estimate D2E/DX2                !
 ! D18   D(13,7,15,17)          35.3321         estimate D2E/DX2                !
 ! D19   D(13,7,15,21)         -88.7728         estimate D2E/DX2                !
 ! D20   D(13,7,15,30)         151.1552         estimate D2E/DX2                !
 ! D21   D(19,7,15,17)        -152.672          estimate D2E/DX2                !
 ! D22   D(19,7,15,21)          83.2231         estimate D2E/DX2                !
 ! D23   D(19,7,15,30)         -36.8489         estimate D2E/DX2                !
 ! D24   D(13,7,19,22)          -0.1137         estimate D2E/DX2                !
 ! D25   D(13,7,19,34)         179.3796         estimate D2E/DX2                !
 ! D26   D(15,7,19,22)        -172.0104         estimate D2E/DX2                !
 ! D27   D(15,7,19,34)           7.483          estimate D2E/DX2                !
 ! D28   D(6,8,9,24)            -2.4574         estimate D2E/DX2                !
 ! D29   D(6,8,9,25)          -145.9392         estimate D2E/DX2                !
 ! D30   D(11,8,9,24)          141.7425         estimate D2E/DX2                !
 ! D31   D(11,8,9,25)           -1.7394         estimate D2E/DX2                !
 ! D32   D(6,8,10,26)          140.1082         estimate D2E/DX2                !
 ! D33   D(6,8,10,27)           -2.3975         estimate D2E/DX2                !
 ! D34   D(11,8,10,26)          -1.1762         estimate D2E/DX2                !
 ! D35   D(11,8,10,27)        -143.6819         estimate D2E/DX2                !
 ! D36   D(6,8,11,12)           83.7618         estimate D2E/DX2                !
 ! D37   D(6,8,11,14)          -93.9428         estimate D2E/DX2                !
 ! D38   D(9,8,11,12)          -63.5804         estimate D2E/DX2                !
 ! D39   D(9,8,11,14)          118.7149         estimate D2E/DX2                !
 ! D40   D(10,8,11,12)        -132.7321         estimate D2E/DX2                !
 ! D41   D(10,8,11,14)          49.5632         estimate D2E/DX2                !
 ! D42   D(24,9,10,26)        -146.3957         estimate D2E/DX2                !
 ! D43   D(24,9,10,27)          -1.639          estimate D2E/DX2                !
 ! D44   D(25,9,10,26)          -0.1706         estimate D2E/DX2                !
 ! D45   D(25,9,10,27)         144.5861         estimate D2E/DX2                !
 ! D46   D(8,11,12,2)           -0.5479         estimate D2E/DX2                !
 ! D47   D(8,11,12,13)        -178.5878         estimate D2E/DX2                !
 ! D48   D(14,11,12,2)         177.3059         estimate D2E/DX2                !
 ! D49   D(14,11,12,13)         -0.734          estimate D2E/DX2                !
 ! D50   D(8,11,14,1)           -0.2908         estimate D2E/DX2                !
 ! D51   D(8,11,14,18)        -179.8218         estimate D2E/DX2                !
 ! D52   D(12,11,14,1)        -178.0837         estimate D2E/DX2                !
 ! D53   D(12,11,14,18)          2.3853         estimate D2E/DX2                !
 ! D54   D(2,12,13,7)           -0.3595         estimate D2E/DX2                !
 ! D55   D(2,12,13,16)        -179.0959         estimate D2E/DX2                !
 ! D56   D(11,12,13,7)         177.6206         estimate D2E/DX2                !
 ! D57   D(11,12,13,16)         -1.1158         estimate D2E/DX2                !
 ! D58   D(7,13,16,18)        -177.2933         estimate D2E/DX2                !
 ! D59   D(7,13,16,20)           1.4393         estimate D2E/DX2                !
 ! D60   D(12,13,16,18)          1.4516         estimate D2E/DX2                !
 ! D61   D(12,13,16,20)       -179.8158         estimate D2E/DX2                !
 ! D62   D(1,14,18,16)         178.3779         estimate D2E/DX2                !
 ! D63   D(1,14,18,33)          -0.7002         estimate D2E/DX2                !
 ! D64   D(11,14,18,16)         -2.0906         estimate D2E/DX2                !
 ! D65   D(11,14,18,33)        178.8313         estimate D2E/DX2                !
 ! D66   D(7,15,17,2)          -58.1289         estimate D2E/DX2                !
 ! D67   D(7,15,17,31)          63.4571         estimate D2E/DX2                !
 ! D68   D(7,15,17,32)        -175.6782         estimate D2E/DX2                !
 ! D69   D(21,15,17,2)          65.0462         estimate D2E/DX2                !
 ! D70   D(21,15,17,31)       -173.3679         estimate D2E/DX2                !
 ! D71   D(21,15,17,32)        -52.5032         estimate D2E/DX2                !
 ! D72   D(30,15,17,2)        -173.1975         estimate D2E/DX2                !
 ! D73   D(30,15,17,31)        -51.6115         estimate D2E/DX2                !
 ! D74   D(30,15,17,32)         69.2532         estimate D2E/DX2                !
 ! D75   D(7,15,21,35)          64.2732         estimate D2E/DX2                !
 ! D76   D(7,15,21,36)        -175.7149         estimate D2E/DX2                !
 ! D77   D(7,15,21,37)         -56.1887         estimate D2E/DX2                !
 ! D78   D(17,15,21,35)        -56.6547         estimate D2E/DX2                !
 ! D79   D(17,15,21,36)         63.3571         estimate D2E/DX2                !
 ! D80   D(17,15,21,37)       -177.1166         estimate D2E/DX2                !
 ! D81   D(30,15,21,35)       -177.3975         estimate D2E/DX2                !
 ! D82   D(30,15,21,36)        -57.3856         estimate D2E/DX2                !
 ! D83   D(30,15,21,37)         62.1406         estimate D2E/DX2                !
 ! D84   D(13,16,18,14)          0.0891         estimate D2E/DX2                !
 ! D85   D(13,16,18,33)        179.1962         estimate D2E/DX2                !
 ! D86   D(20,16,18,14)       -178.6788         estimate D2E/DX2                !
 ! D87   D(20,16,18,33)          0.4283         estimate D2E/DX2                !
 ! D88   D(13,16,20,3)         178.7273         estimate D2E/DX2                !
 ! D89   D(13,16,20,22)         -1.1069         estimate D2E/DX2                !
 ! D90   D(18,16,20,3)          -2.5393         estimate D2E/DX2                !
 ! D91   D(18,16,20,22)        177.6265         estimate D2E/DX2                !
 ! D92   D(7,19,22,20)           0.4027         estimate D2E/DX2                !
 ! D93   D(7,19,22,23)         179.0286         estimate D2E/DX2                !
 ! D94   D(34,19,22,20)       -179.0787         estimate D2E/DX2                !
 ! D95   D(34,19,22,23)         -0.4528         estimate D2E/DX2                !
 ! D96   D(3,20,22,19)        -179.6246         estimate D2E/DX2                !
 ! D97   D(3,20,22,23)           1.9239         estimate D2E/DX2                !
 ! D98   D(16,20,22,19)          0.1996         estimate D2E/DX2                !
 ! D99   D(16,20,22,23)       -178.252          estimate D2E/DX2                !
 ! D100  D(19,22,23,4)        -172.0867         estimate D2E/DX2                !
 ! D101  D(19,22,23,5)           6.7732         estimate D2E/DX2                !
 ! D102  D(20,22,23,4)           6.4457         estimate D2E/DX2                !
 ! D103  D(20,22,23,5)        -174.6944         estimate D2E/DX2                !
 --------------------------------------------------------------------------------
 Trust Radius=3.00D-01 FncErr=1.00D-07 GrdErr=1.00D-06
 Number of steps in this run=    225 maximum allowed number of steps=    228.
 GradGradGradGradGradGradGradGradGradGradGradGradGradGradGradGradGradGrad

                          Input orientation:                          
 ---------------------------------------------------------------------
 Center     Atomic      Atomic             Coordinates (Angstroms)
 Number     Number       Type             X           Y           Z
 ---------------------------------------------------------------------
      1          9           0      -14.660000   -8.551000    8.755000
      2          8           0      -13.822000  -13.205000    8.307000
      3          8           0       -9.670000   -8.814000    8.527000
      4          8           0       -7.154000   -9.933000    8.657000
      5          8           0       -7.001000  -12.159000    8.266000
      6          7           0      -16.213000  -11.537000    9.840000
      7          7           0      -11.047000  -12.693000    8.321000
      8          6           0      -15.758000  -11.186000    8.508000
      9          6           0      -16.373000  -11.826000    7.274000
     10          6           0      -16.686000  -10.395000    7.630000
     11          6           0      -14.291000  -10.881000    8.482000
     12          6           0      -13.353000  -11.913000    8.375000
     13          6           0      -11.968000  -11.643000    8.379000
     14          6           0      -13.776000   -9.581000    8.608000
     15          6           0      -11.541000  -14.077000    8.425000
     16          6           0      -11.504000  -10.319000    8.468000
     17          6           0      -12.892000  -14.132000    7.724000
     18          6           0      -12.431000   -9.280000    8.583000
     19          6           0       -9.723000  -12.432000    8.334000
     20          6           0      -10.050000   -9.995000    8.471000
     21          6           0      -11.607000  -14.537000    9.880000
     22          6           0       -9.177000  -11.169000    8.400000
     23          6           0       -7.701000  -11.152000    8.423000
     24          1           0      -17.135000  -12.583000    7.455000
     25          1           0      -15.737000  -12.013000    6.409000
     26          1           0      -16.263000   -9.606000    7.012000
     27          1           0      -17.673000  -10.161000    8.031000
     28          1           0      -16.031000  -12.526000   10.055000
     29          1           0      -17.213000  -11.346000    9.976000
     30          1           0      -10.838000  -14.712000    7.863000
     31          1           0      -12.781000  -13.907000    6.650000
     32          1           0      -13.345000  -15.124000    7.836000
     33          1           0      -12.067000   -8.257000    8.665000
     34          1           0       -9.057000  -13.295000    8.297000
     35          1           0      -12.338000  -13.945000   10.447000
     36          1           0      -11.904000  -15.593000    9.927000
     37          1           0      -10.626000  -14.434000   10.363000
     38          1           0       -6.181000  -10.088000    8.660000
 ---------------------------------------------------------------------
                    Distance matrix (angstroms):
                    1          2          3          4          5
     1  F    0.000000
     2  O    4.750017   0.000000
     3  O    5.002125   6.047180   0.000000
     4  O    7.632795   7.435772   2.756686   0.000000
     5  O    8.480393   6.900858   4.287273   2.265252   0.000000
     6  N    3.536273   3.293811   7.207603   9.275656   9.366179
     7  N    5.513464   2.821873   4.121311   4.783926   4.081458
     8  C    2.865281   2.804435   6.533796   8.696035   8.814213
     9  C    3.981627   3.078365   7.454687   9.512418   9.430235
    10  C    2.961526   4.069020   7.247650   9.598291   9.864858
    11  C    2.374782   2.377301   5.062426   7.201812   7.404326
    12  C    3.627078   1.376172   4.815744   6.513641   6.357696
    13  C    4.116880   2.425354   3.647732   5.116247   4.995009
    14  C    1.365271   3.636770   4.177809   6.631530   7.256974
    15  C    6.354033   2.444845   5.586610   6.039232   4.931086
    16  C    3.628847   3.705137   2.373197   4.371180   4.868615
    17  C    5.944438   1.436704   6.269547   7.171244   6.236215
    18  C    2.351482   4.173330   2.800609   5.317764   6.154188
    19  C    6.293915   4.171338   3.623532   3.598485   2.736501
    20  C    4.839204   4.955702   1.241893   2.902629   3.744506
    21  C    6.813122   3.025686   6.191551   6.520871   5.429099
    22  C    6.086316   5.072472   2.409399   2.384591   2.394375
    23  C    7.436606   6.457159   3.058434   1.356439   1.236405
    24  H    4.906389   3.476889   8.430941  10.396522  10.175237
    25  H    4.318459   2.947964   7.178302   9.113056   8.932383
    26  H    2.592428   4.537434   6.811031   9.262118   9.688910
    27  H    3.492055   4.916535   8.130709  10.540077  10.859964
    28  H    4.401166   2.897624   7.521705   9.353031   9.212823
    29  H    3.977521   4.211926   8.087489  10.243037  10.386049
    30  H    7.304880   3.372305   6.049093   6.086143   4.626315
    31  H    6.053792   2.078974   6.256205   7.175225   6.251029
    32  H    6.765953   2.032715   7.334794   8.120899   7.015872
    33  H    2.611165   5.262214   2.464732   5.191012   6.406962
    34  H    7.355876   4.765860   4.528579   3.879955   2.349169
    35  H    6.111447   2.707297   6.093586   6.795153   6.035737
    36  H    7.652378   3.464920   7.273623   7.497400   6.212140
    37  H    7.312216   3.993995   5.989093   5.935000   4.765885
    38  H    8.617705   8.259853   3.716704   0.985273   2.262007
                    6          7          8          9         10
     6  N    0.000000
     7  N    5.507382   0.000000
     8  C    1.450672   4.949701   0.000000
     9  C    2.587175   5.496742   1.520060   0.000000
    10  C    2.532191   6.128344   1.502581   1.507470   0.000000
    11  C    2.443069   3.719247   1.498596   2.585926   2.588074
    12  C    3.235305   2.434944   2.515997   3.215613   3.737411
    13  C    4.490633   1.397893   3.819632   4.545167   4.937411
    14  C    3.358977   4.149018   2.552322   3.682932   3.176032
    15  C    5.502855   1.473197   5.113498   5.453442   6.376533
    16  C    5.053770   2.422052   4.341636   5.234868   5.249871
    17  C    4.715986   2.414778   4.184200   4.199702   5.326203
    18  C    4.580133   3.692244   3.835022   4.871854   4.500718
    19  C    6.722288   1.349543   6.164740   6.761164   7.288920
    20  C    6.498807   2.880228   5.831047   6.690717   6.701028
    21  C    5.496984   2.478793   5.508392   6.070874   6.929279
    22  C    7.191267   2.413652   6.581908   7.313135   7.587955
    23  C    8.637723   3.685214   8.057520   8.773714   9.051636
    24  H    2.762684   6.150268   2.226330   1.089245   2.240440
    25  H    3.496414   5.110210   2.256141   1.089812   2.238161
    26  H    3.424740   6.200783   2.233706   2.238112   1.087830
    27  H    2.701381   7.099225   2.223821   2.243942   1.090746
    28  H    1.028334   5.279669   2.064785   2.888066   3.294057
    29  H    1.027121   6.524798   2.073077   2.869983   2.585700
    30  H    6.548265   2.080819   6.087290   6.269940   7.272543
    31  H    5.250869   2.696812   4.440556   4.197904   5.342618
    32  H    5.010789   3.380206   4.667119   4.512364   5.793803
    33  H    5.415565   4.564738   4.714570   5.763183   5.193980
    34  H    7.528595   2.079202   7.028215   7.531822   8.188805
    35  H    4.602449   2.784611   4.802937   5.553316   6.280374
    36  H    5.918292   3.423987   6.023996   6.418774   7.427176
    37  H    6.315117   2.716263   6.350429   7.026492   7.778587
    38  H   10.204559   5.529819   9.640935  10.431611  10.559838
                   11         12         13         14         15
    11  C    0.000000
    12  C    1.398684   0.000000
    13  C    2.446954   1.411078   0.000000
    14  C    1.403959   2.381479   2.751936   0.000000
    15  C    4.216653   2.822896   2.471599   5.024214   0.000000
    16  C    2.843134   2.443008   1.405771   2.392954   3.758428
    17  C    3.619498   2.358025   2.734579   4.719588   1.523032
    18  C    2.456217   2.797505   2.416558   1.378496   4.881421
    19  C    4.826399   3.667144   2.380036   4.962871   2.453453
    20  C    4.332574   3.820700   2.530433   3.751432   4.346024
    21  C    4.746008   3.492695   3.280024   5.557381   1.527410
    22  C    5.122759   4.241832   2.831042   4.869888   3.747744
    23  C    6.595834   5.703203   4.295382   6.277570   4.827135
    24  H    3.469851   3.949535   5.332473   4.650193   5.870756
    25  H    2.769417   3.091701   4.268859   3.820438   5.092226
    26  H    2.770435   3.955770   4.946219   2.955167   6.654599
    27  H    3.487080   4.674424   5.904613   3.981952   7.286406
    28  H    2.864953   3.220226   4.482927   3.981439   5.022211
    29  H    3.314566   4.217142   5.490778   4.098734   6.483483
    30  H    5.194510   3.797601   3.310879   5.959365   1.101489
    31  H    3.846167   2.697933   2.962449   4.851604   2.171894
    32  H    4.394915   3.255934   3.782637   5.613073   2.167382
    33  H    3.444567   3.886416   3.399499   2.162616   5.848647
    34  H    5.766834   4.513494   3.348096   6.013275   2.607329
    35  H    4.130803   3.074481   3.116525   4.949168   2.177411
    36  H    5.476197   4.248612   4.242982   6.433373   2.164724
    37  H    5.440055   4.212376   3.677894   6.046001   2.172675
    38  H    8.150622   7.406040   5.998863   7.612081   6.685577
                   16         17         18         19         20
    16  C    0.000000
    17  C    4.125415   0.000000
    18  C    1.397167   4.948970   0.000000
    19  C    2.766710   3.647555   4.162976   0.000000
    20  C    1.489665   5.074420   2.488560   2.462654   0.000000
    21  C    4.449256   2.542358   5.476973   3.220341   5.003928
    22  C    2.478317   4.799747   3.767005   1.377549   1.464734
    23  C    3.893420   6.026233   5.089488   2.394745   2.618922
    24  H    6.153050   4.524910   5.857458   7.465466   7.610994
    25  H    5.002740   3.783307   4.808867   6.328458   6.377001
    26  H    5.027563   5.688169   4.154340   7.246072   6.393854
    27  H    6.186477   6.222624   5.344102   8.273557   7.637492
    28  H    5.280450   4.226833   5.065896   6.539231   6.684862
    29  H    5.993453   5.612873   5.392247   7.744395   7.443037
    30  H    4.484198   2.138840   5.706371   2.581369   4.820861
    31  H    4.220142   1.102915   5.026740   3.789834   5.106677
    32  H    5.184277   1.096274   5.962025   4.540237   6.129184
    33  H    2.146537   6.006807   1.088921   4.799429   2.669563
    34  H    3.856634   3.966878   5.252228   1.090731   3.450554
    35  H    4.214246   2.785070   5.024477   3.686755   4.974135
    36  H    5.486689   2.822034   6.475958   4.157683   6.074114
    37  H    4.614665   3.491458   5.743704   2.990026   4.859646
    38  H    5.331468   7.890979   6.302483   4.259856   3.874730
                   21         22         23         24         25
    21  C    0.000000
    22  C    4.408937   0.000000
    23  C    5.370094   1.476277   0.000000
    24  H    6.344882   8.137701   9.590888   0.000000
    25  H    5.956116   6.907244   8.329154   1.836687   0.000000
    26  H    7.363323   7.387889   8.814130   3.133554   2.536520
    27  H    7.704838   8.563541  10.028785   2.547019   3.131914
    28  H    4.862769   7.180375   8.598849   2.825255   3.693632
    29  H    6.451274   8.190995   9.639896   2.809216   3.917519
    30  H    2.165704   3.949701   4.777862   6.659678   5.779180
    31  H    3.494006   4.852624   6.044829   4.621506   3.518985
    32  H    2.746479   5.773417   6.926477   4.578858   4.175681
    33  H    6.412973   4.111213   5.244192   6.772223   5.715415
    34  H    3.248223   2.131874   2.539106   8.152913   7.059070
    35  H    1.098323   4.678494   5.779204   5.815352   5.620611
    36  H    1.097977   5.416644   6.296801   6.521828   6.315427
    37  H    1.098298   4.075929   4.805283   7.365443   6.900556
    38  H    7.122042   3.195650   1.870472  11.298990  10.004487
                   26         27         28         29         30
    26  H    0.000000
    27  H    1.826058   0.000000
    28  H    4.223751   3.519370   0.000000
    29  H    3.565865   2.323543   1.672054   0.000000
    30  H    7.498404   8.213224   6.045718   7.512347   0.000000
    31  H    5.545626   6.314376   4.905475   6.104394   2.427889
    32  H    6.296191   6.587942   4.346051   5.815007   2.540772
    33  H    4.707295   5.954360   5.989137   6.143448   6.619718
    34  H    8.196730   9.172141   7.233160   8.552074   2.316939
    35  H    6.784672   6.972656   3.975610   5.544571   3.084695
    36  H    7.958786   8.147564   5.143443   6.798889   2.484474
    37  H    8.143375   8.564868   5.740153   7.285196   2.524327
    38  H   10.227167  11.509432  10.242674  11.181209   6.610918
                   31         32         33         34         35
    31  H    0.000000
    32  H    1.790469   0.000000
    33  H    6.040904   7.033933   0.000000
    34  H    4.117685   4.684518   5.880218   0.000000
    35  H    3.822944   3.036678   5.966767   3.976174   0.000000
    36  H    3.788199   2.582387   7.445543   4.005385   1.781758
    37  H    4.325289   3.775552   6.566202   2.833273   1.782448
    38  H    7.885738   8.795633   6.164218   4.322961   7.481876
                   36         37         38
    36  H    0.000000
    37  H    1.779511   0.000000
    38  H    8.041333   6.445615   0.000000
 Stoichiometry    C16H15FN2O4
 Framework group  C1[X(C16H15FN2O4)]
 Deg. of freedom   108
 Full point group                 C1      NOp   1
 Largest Abelian subgroup         C1      NOp   1
 Largest concise Abelian subgroup C1      NOp   1
                         Standard orientation:                         
 ---------------------------------------------------------------------
 Center     Atomic      Atomic             Coordinates (Angstroms)
 Number     Number       Type             X           Y           Z
 ---------------------------------------------------------------------
      1          9           0        2.531119   -2.836090    0.357346
      2          8           0        1.665939    1.804584   -0.170172
      3          8           0       -2.456396   -2.614457    0.046184
      4          8           0       -4.982381   -1.512983    0.120150
      5          8           0       -5.145587    0.706040   -0.304897
      6          7           0        4.044351    0.176708    1.424309
      7          7           0       -1.105057    1.271652   -0.193078
      8          6           0        3.613379   -0.196530    0.090365
      9          6           0        4.243323    0.430661   -1.142673
     10          6           0        4.561173   -0.992738   -0.761391
     11          6           0        2.149285   -0.513063    0.045352
     12          6           0        1.205498    0.510128   -0.091258
     13          6           0       -0.177349    0.229641   -0.105471
     14          6           0        1.641980   -1.815050    0.181634
     15          6           0       -0.623059    2.660715   -0.100943
     16          6           0       -0.632891   -1.096476   -0.005027
     17          6           0        0.738561    2.716129   -0.781051
     18          6           0        0.299822   -2.126638    0.139506
     19          6           0       -2.427125    1.000756   -0.197450
     20          6           0       -2.084311   -1.431498   -0.020570
     21          6           0       -0.583806    3.141705    1.348225
     22          6           0       -2.964737   -0.265319   -0.122175
     23          6           0       -4.440750   -0.293266   -0.122444
     24          1           0        4.996692    1.195939   -0.960358
     25          1           0        3.619905    0.600565   -2.020267
     26          1           0        4.153995   -1.793593   -1.374751
     27          1           0        5.543324   -1.213506   -0.341432
     28          1           0        3.851603    1.167226    1.622278
     29          1           0        5.043430   -0.004709    1.578924
     30          1           0       -1.321646    3.282328   -0.683053
     31          1           0        0.646465    2.475145   -1.853369
     32          1           0        1.182342    3.713043   -0.675988
     33          1           0       -0.057854   -3.151128    0.230258
     34          1           0       -3.098824    1.858036   -0.257337
     35          1           0        0.142377    2.563371    1.935168
     36          1           0       -0.295433    4.200501    1.384907
     37          1           0       -1.571633    3.038045    1.816959
     38          1           0       -5.956426   -1.365393    0.105446
 ---------------------------------------------------------------------
 Rotational constants (GHZ):      0.4851434      0.1782813      0.1384372
 Standard basis: 3-21G (6D, 7F)
 There are   237 symmetry adapted cartesian basis functions of A   symmetry.
 There are   237 symmetry adapted basis functions of A   symmetry.
   237 basis functions,   390 primitive gaussians,   237 cartesian basis functions
    83 alpha electrons       83 beta electrons
       nuclear repulsion energy      1983.2307320695 Hartrees.
 NAtoms=   38 NActive=   38 NUniq=   38 SFac= 1.00D+00 NAtFMM=   60 NAOKFM=F Big=F
 Integral buffers will be    131072 words long.
 Raffenetti 2 integral format.
 Two-electron integral symmetry is turned on.
 One-electron integrals computed using PRISM.
 PrsmSu:  requested number of processors reduced to:   9 ShMem   1 Linda.
 NBasis=   237 RedAO= T EigKep=  1.22D-03  NBF=   237
 NBsUse=   237 1.00D-06 EigRej= -1.00D+00 NBFU=   237
 ExpMin= 1.83D-01 ExpMax= 4.14D+02 ExpMxC= 4.14D+02 IAcc=1 IRadAn=         1 AccDes= 0.00D+00
 Harris functional with IExCor=  402 and IRadAn=       1 diagonalized for initial guess.
 HarFok:  IExCor=  402 AccDes= 0.00D+00 IRadAn=         1 IDoV= 1 UseB2=F ITyADJ=14
 ICtDFT=  3500011 ScaDFX=  1.000000  1.000000  1.000000  1.000000
 FoFCou: FMM=F IPFlag=           0 FMFlag=      100000 FMFlg1=           0
         NFxFlg=           0 DoJE=T BraDBF=F KetDBF=T FulRan=T
         wScrn=  0.000000 ICntrl=     500 IOpCl=  0 I1Cent=   200000004 NGrid=           0
         NMat0=    1 NMatS0=      1 NMatT0=    0 NMatD0=    1 NMtDS0=    0 NMtDT0=    0
 Petite list used in FoFCou.
 Requested convergence on RMS density matrix=1.00D-08 within 128 cycles.
 Requested convergence on MAX density matrix=1.00D-06.
 Requested convergence on             energy=1.00D-06.
 No special actions if energy rises.
 Integral accuracy reduced to 1.0D-05 until final iterations.
 Initial convergence to 1.0D-05 achieved.  Increase integral accuracy.
 SCF Done:  E(RB3LYP) =  -1122.74488789     A.U. after   17 cycles
            NFock= 17  Conv=0.33D-08     -V/T= 2.0080

 **********************************************************************

            Population analysis using the SCF density.

 **********************************************************************

 Orbital symmetries:
       Occupied  (A) (A) (A) (A) (A) (A) (A) (A) (A) (A) (A) (A)
                 (A) (A) (A) (A) (A) (A) (A) (A) (A) (A) (A) (A)
                 (A) (A) (A) (A) (A) (A) (A) (A) (A) (A) (A) (A)
                 (A) (A) (A) (A) (A) (A) (A) (A) (A) (A) (A) (A)
                 (A) (A) (A) (A) (A) (A) (A) (A) (A) (A) (A) (A)
                 (A) (A) (A) (A) (A) (A) (A) (A) (A) (A) (A) (A)
                 (A) (A) (A) (A) (A) (A) (A) (A) (A) (A) (A)
       Virtual   (A) (A) (A) (A) (A) (A) (A) (A) (A) (A) (A) (A)
                 (A) (A) (A) (A) (A) (A) (A) (A) (A) (A) (A) (A)
                 (A) (A) (A) (A) (A) (A) (A) (A) (A) (A) (A) (A)
                 (A) (A) (A) (A) (A) (A) (A) (A) (A) (A) (A) (A)
                 (A) (A) (A) (A) (A) (A) (A) (A) (A) (A) (A) (A)
                 (A) (A) (A) (A) (A) (A) (A) (A) (A) (A) (A) (A)
                 (A) (A) (A) (A) (A) (A) (A) (A) (A) (A) (A) (A)
                 (A) (A) (A) (A) (A) (A) (A) (A) (A) (A) (A) (A)
                 (A) (A) (A) (A) (A) (A) (A) (A) (A) (A) (A) (A)
                 (A) (A) (A) (A) (A) (A) (A) (A) (A) (A) (A) (A)
                 (A) (A) (A) (A) (A) (A) (A) (A) (A) (A) (A) (A)
                 (A) (A) (A) (A) (A) (A) (A) (A) (A) (A) (A) (A)
                 (A) (A) (A) (A) (A) (A) (A) (A) (A) (A)
 The electronic state is 1-A.
 Alpha  occ. eigenvalues --  -24.56636 -19.10087 -19.07213 -19.01538 -19.00005
 Alpha  occ. eigenvalues --  -14.34598 -14.22821 -10.25310 -10.21656 -10.21641
 Alpha  occ. eigenvalues --  -10.21433 -10.21212 -10.20227 -10.20192 -10.19808
 Alpha  occ. eigenvalues --  -10.17402 -10.15409 -10.15229 -10.14577 -10.14352
 Alpha  occ. eigenvalues --  -10.13444 -10.13002 -10.12454  -1.20541  -1.10617
 Alpha  occ. eigenvalues --   -1.10143  -1.02545  -1.01661  -1.00664  -0.92132
 Alpha  occ. eigenvalues --   -0.88359  -0.84278  -0.82264  -0.80561  -0.78884
 Alpha  occ. eigenvalues --   -0.75910  -0.73062  -0.69122  -0.67387  -0.66366
 Alpha  occ. eigenvalues --   -0.61958  -0.61170  -0.59935  -0.58421  -0.56477
 Alpha  occ. eigenvalues --   -0.55020  -0.54363  -0.52501  -0.50999  -0.50486
 Alpha  occ. eigenvalues --   -0.49277  -0.49143  -0.48637  -0.47636  -0.47196
 Alpha  occ. eigenvalues --   -0.46377  -0.45195  -0.44857  -0.44721  -0.43735
 Alpha  occ. eigenvalues --   -0.42772  -0.42481  -0.41391  -0.41017  -0.40233
 Alpha  occ. eigenvalues --   -0.39496  -0.37897  -0.37452  -0.37001  -0.36840
 Alpha  occ. eigenvalues --   -0.36159  -0.35640  -0.34998  -0.32415  -0.31925
 Alpha  occ. eigenvalues --   -0.30256  -0.29261  -0.26538  -0.26108  -0.24472
 Alpha  occ. eigenvalues --   -0.22671  -0.21416  -0.21115
 Alpha virt. eigenvalues --   -0.04455  -0.03948   0.01484   0.03799   0.06410
 Alpha virt. eigenvalues --    0.09000   0.10227   0.10739   0.10985   0.11939
 Alpha virt. eigenvalues --    0.12271   0.13018   0.13241   0.13807   0.14390
 Alpha virt. eigenvalues --    0.15509   0.16061   0.16657   0.17508   0.17873
 Alpha virt. eigenvalues --    0.18851   0.19336   0.19941   0.20403   0.21487
 Alpha virt. eigenvalues --    0.22143   0.23200   0.24621   0.24858   0.25169
 Alpha virt. eigenvalues --    0.26187   0.27659   0.29908   0.30335   0.31479
 Alpha virt. eigenvalues --    0.33889   0.35785   0.36351   0.38020   0.40646
 Alpha virt. eigenvalues --    0.41632   0.44333   0.45321   0.50063   0.54939
 Alpha virt. eigenvalues --    0.58087   0.60271   0.62358   0.62874   0.65936
 Alpha virt. eigenvalues --    0.66770   0.67864   0.69440   0.70006   0.70388
 Alpha virt. eigenvalues --    0.70418   0.71207   0.71879   0.72394   0.72899
 Alpha virt. eigenvalues --    0.73460   0.73777   0.75101   0.75322   0.75524
 Alpha virt. eigenvalues --    0.77314   0.77883   0.79111   0.80072   0.81512
 Alpha virt. eigenvalues --    0.81925   0.83035   0.83955   0.84579   0.85060
 Alpha virt. eigenvalues --    0.85678   0.87665   0.88414   0.91034   0.92541
 Alpha virt. eigenvalues --    0.95081   0.95341   0.95922   0.98114   0.99630
 Alpha virt. eigenvalues --    1.00261   1.00878   1.01732   1.03030   1.03794
 Alpha virt. eigenvalues --    1.04292   1.05164   1.06581   1.08580   1.09014
 Alpha virt. eigenvalues --    1.10108   1.10333   1.12175   1.14715   1.16836
 Alpha virt. eigenvalues --    1.18250   1.20411   1.23283   1.27354   1.30253
 Alpha virt. eigenvalues --    1.31344   1.32945   1.33776   1.35356   1.37228
 Alpha virt. eigenvalues --    1.37904   1.40369   1.44190   1.44920   1.45953
 Alpha virt. eigenvalues --    1.48354   1.50452   1.53018   1.57005   1.58112
 Alpha virt. eigenvalues --    1.58638   1.60386   1.62026   1.63398   1.65014
 Alpha virt. eigenvalues --    1.66394   1.67933   1.71367   1.72794   1.79289
 Alpha virt. eigenvalues --    1.80547   1.81630   1.87300   1.90061   1.90591
 Alpha virt. eigenvalues --    1.93060   1.94114   1.99169   2.01056   2.05135
 Alpha virt. eigenvalues --    2.06209   2.08775   2.15364   2.19677   2.25661
 Alpha virt. eigenvalues --    2.26851   2.44488   2.63901   2.97711   3.15579
 Alpha virt. eigenvalues --    3.42714   3.49345   3.58125   3.98802
          Condensed to atoms (all electrons):
               1          2          3          4          5          6
     1  F    9.075836   0.000000   0.000000   0.000000   0.000000  -0.000087
     2  O    0.000000   8.238191   0.000000   0.000000   0.000000  -0.000706
     3  O    0.000000   0.000000   8.070615  -0.000726  -0.000001   0.000000
     4  O    0.000000   0.000000  -0.000726   8.233694  -0.064837   0.000000
     5  O    0.000000   0.000000  -0.000001  -0.064837   8.149031   0.000000
     6  N   -0.000087  -0.000706   0.000000   0.000000   0.000000   6.832316
     7  N    0.000000  -0.007200  -0.000024  -0.000001   0.000103   0.000000
     8  C   -0.001198   0.003880   0.000000   0.000000   0.000000   0.348195
     9  C    0.000204   0.001986   0.000000   0.000000   0.000000  -0.053735
    10  C    0.000809   0.000333   0.000000   0.000000   0.000000  -0.029913
    11  C   -0.068566  -0.068341  -0.000004   0.000000   0.000000  -0.083311
    12  C    0.002764   0.286720   0.000001   0.000000   0.000000  -0.002997
    13  C   -0.000204  -0.066606   0.003757  -0.000003   0.000001   0.000020
    14  C    0.334523   0.002647   0.000570   0.000000   0.000000   0.001157
    15  C    0.000000  -0.044440   0.000000   0.000000   0.000003  -0.000001
    16  C    0.003193   0.003654  -0.123856   0.000098  -0.000015  -0.000008
    17  C    0.000000   0.259920   0.000000   0.000000   0.000000   0.000002
    18  C   -0.062629  -0.000246   0.003708   0.000000   0.000000   0.000041
    19  C    0.000000  -0.000110   0.003451   0.003178   0.004352   0.000000
    20  C   -0.000005   0.000000   0.639524   0.001949   0.001980   0.000000
    21  C    0.000000  -0.001270   0.000000   0.000000   0.000000   0.000000
    22  C    0.000000   0.000001  -0.116096  -0.094019  -0.115003   0.000000
    23  C    0.000000   0.000000  -0.004201   0.220791   0.518052   0.000000
    24  H   -0.000001  -0.000033   0.000000   0.000000   0.000000  -0.000239
    25  H    0.000001   0.000690   0.000000   0.000000   0.000000   0.001547
    26  H    0.004147   0.000000   0.000000   0.000000   0.000000   0.001218
    27  H   -0.000001  -0.000001   0.000000   0.000000   0.000000  -0.003060
    28  H   -0.000002   0.002460   0.000000   0.000000   0.000000   0.319130
    29  H   -0.000006  -0.000002   0.000000   0.000000   0.000000   0.324433
    30  H    0.000000   0.001593   0.000000   0.000000  -0.000002   0.000000
    31  H    0.000000  -0.035976   0.000000   0.000000   0.000000   0.000000
    32  H    0.000000  -0.025848   0.000000   0.000000   0.000000   0.000001
    33  H   -0.002202   0.000000   0.013976   0.000000   0.000000   0.000000
    34  H    0.000000   0.000000  -0.000003   0.000250   0.020435   0.000000
    35  H    0.000000   0.006169   0.000000   0.000000   0.000000   0.000001
    36  H    0.000000  -0.000030   0.000000   0.000000   0.000000   0.000000
    37  H    0.000000   0.000032   0.000000   0.000000   0.000000   0.000000
    38  H    0.000000   0.000000   0.000173   0.239669   0.005422   0.000000
               7          8          9         10         11         12
     1  F    0.000000  -0.001198   0.000204   0.000809  -0.068566   0.002764
     2  O   -0.007200   0.003880   0.001986   0.000333  -0.068341   0.286720
     3  O   -0.000024   0.000000   0.000000   0.000000  -0.000004   0.000001
     4  O   -0.000001   0.000000   0.000000   0.000000   0.000000   0.000000
     5  O    0.000103   0.000000   0.000000   0.000000   0.000000   0.000000
     6  N    0.000000   0.348195  -0.053735  -0.029913  -0.083311  -0.002997
     7  N    7.509988  -0.000014   0.000000   0.000000   0.005080  -0.055177
     8  C   -0.000014   5.542102   0.078089   0.117971   0.229181  -0.095689
     9  C    0.000000   0.078089   5.672268   0.055327  -0.081423  -0.012216
    10  C    0.000000   0.117971   0.055327   5.550699  -0.037575   0.007332
    11  C    0.005080   0.229181  -0.081423  -0.037575   5.923099   0.234141
    12  C   -0.055177  -0.095689  -0.012216   0.007332   0.234141   5.275164
    13  C    0.168525   0.008373   0.000173  -0.000032  -0.044504   0.150000
    14  C   -0.000490  -0.076878   0.008441  -0.010385   0.146893  -0.000778
    15  C    0.227951   0.000021   0.000006   0.000000  -0.000741  -0.020194
    16  C   -0.034408  -0.001074  -0.000026  -0.000002  -0.042995   0.023018
    17  C   -0.053655  -0.000184   0.000009  -0.000003   0.002152  -0.083459
    18  C    0.005975   0.006471   0.000018   0.000106  -0.104522  -0.053006
    19  C    0.249024   0.000001   0.000000   0.000000  -0.000086   0.001484
    20  C   -0.036180  -0.000001   0.000000   0.000000  -0.000750   0.005345
    21  C   -0.064889   0.000002   0.000000   0.000000  -0.000040   0.000373
    22  C   -0.014950   0.000000   0.000000   0.000000  -0.000016  -0.000644
    23  C    0.004762   0.000000   0.000000   0.000000   0.000000  -0.000004
    24  H    0.000000  -0.027001   0.368625  -0.024162   0.002329   0.000256
    25  H    0.000000  -0.018659   0.361330  -0.022335  -0.001609   0.001640
    26  H    0.000000  -0.025386  -0.022019   0.375848  -0.005324   0.000044
    27  H    0.000000  -0.028344  -0.023591   0.372917   0.001867  -0.000076
    28  H    0.000000  -0.049239  -0.006639   0.006582  -0.004933   0.003140
    29  H    0.000000  -0.049731   0.003840  -0.008422   0.006693  -0.000103
    30  H   -0.036197   0.000000   0.000000   0.000000   0.000014   0.000591
    31  H   -0.001197   0.000026  -0.000015   0.000001   0.000554  -0.001352
    32  H    0.002542  -0.000030   0.000005   0.000000   0.000008   0.003571
    33  H   -0.000005  -0.000007   0.000001   0.000000   0.005090  -0.000606
    34  H   -0.035097   0.000000   0.000000   0.000000   0.000000  -0.000080
    35  H   -0.001034   0.000003   0.000000   0.000000  -0.000024   0.001187
    36  H    0.002957   0.000000   0.000000   0.000000   0.000001   0.000008
    37  H   -0.001331   0.000000   0.000000   0.000000   0.000000  -0.000082
    38  H    0.000000   0.000000   0.000000   0.000000   0.000000   0.000000
              13         14         15         16         17         18
     1  F   -0.000204   0.334523   0.000000   0.003193   0.000000  -0.062629
     2  O   -0.066606   0.002647  -0.044440   0.003654   0.259920  -0.000246
     3  O    0.003757   0.000570   0.000000  -0.123856   0.000000   0.003708
     4  O   -0.000003   0.000000   0.000000   0.000098   0.000000   0.000000
     5  O    0.000001   0.000000   0.000003  -0.000015   0.000000   0.000000
     6  N    0.000020   0.001157  -0.000001  -0.000008   0.000002   0.000041
     7  N    0.168525  -0.000490   0.227951  -0.034408  -0.053655   0.005975
     8  C    0.008373  -0.076878   0.000021  -0.001074  -0.000184   0.006471
     9  C    0.000173   0.008441   0.000006  -0.000026   0.000009   0.000018
    10  C   -0.000032  -0.010385   0.000000  -0.000002  -0.000003   0.000106
    11  C   -0.044504   0.146893  -0.000741  -0.042995   0.002152  -0.104522
    12  C    0.150000  -0.000778  -0.020194   0.023018  -0.083459  -0.053006
    13  C    5.456785  -0.053236  -0.052318   0.192531  -0.008919  -0.056924
    14  C   -0.053236   5.201957  -0.000004  -0.007646  -0.000059   0.176780
    15  C   -0.052318  -0.000004   5.446548   0.000939   0.200254  -0.000083
    16  C    0.192531  -0.007646   0.000939   6.102455   0.000829   0.204817
    17  C   -0.008919  -0.000059   0.200254   0.000829   5.203334   0.000010
    18  C   -0.056924   0.176780  -0.000083   0.204817   0.000010   5.770957
    19  C   -0.066663   0.000010  -0.054587  -0.011428   0.002400  -0.001225
    20  C    0.002720   0.008485   0.000045  -0.026684  -0.000005  -0.072706
    21  C    0.002033  -0.000001   0.253901  -0.000097  -0.083844   0.000004
    22  C   -0.023349   0.000009   0.001797  -0.167954  -0.000141   0.014241
    23  C   -0.000628   0.000000  -0.000048   0.005692   0.000000   0.000012
    24  H    0.000000  -0.000090   0.000000   0.000000  -0.000003   0.000000
    25  H   -0.000030  -0.000115   0.000002  -0.000002   0.000162   0.000003
    26  H    0.000007   0.000890   0.000000  -0.000008   0.000000  -0.000037
    27  H    0.000000   0.000222   0.000000   0.000000   0.000000   0.000001
    28  H    0.000079  -0.000388   0.000004  -0.000003  -0.000040   0.000004
    29  H    0.000001   0.000066   0.000000   0.000000   0.000000   0.000000
    30  H    0.002707   0.000000   0.360230  -0.000041  -0.028667   0.000001
    31  H    0.003782  -0.000017  -0.056668  -0.000172   0.340308  -0.000002
    32  H   -0.000372   0.000002  -0.042192   0.000006   0.373550   0.000000
    33  H    0.004316  -0.036956   0.000001  -0.056107   0.000000   0.377127
    34  H    0.003088   0.000000  -0.001513  -0.000434   0.000111   0.000001
    35  H    0.000612  -0.000006  -0.041617  -0.000019  -0.003262   0.000004
    36  H   -0.000068   0.000000  -0.038100   0.000000   0.000520   0.000000
    37  H   -0.000139   0.000000  -0.036631   0.000010   0.003656   0.000000
    38  H    0.000000   0.000000   0.000000   0.000005   0.000000   0.000000
              19         20         21         22         23         24
     1  F    0.000000  -0.000005   0.000000   0.000000   0.000000  -0.000001
     2  O   -0.000110   0.000000  -0.001270   0.000001   0.000000  -0.000033
     3  O    0.003451   0.639524   0.000000  -0.116096  -0.004201   0.000000
     4  O    0.003178   0.001949   0.000000  -0.094019   0.220791   0.000000
     5  O    0.004352   0.001980   0.000000  -0.115003   0.518052   0.000000
     6  N    0.000000   0.000000   0.000000   0.000000   0.000000  -0.000239
     7  N    0.249024  -0.036180  -0.064889  -0.014950   0.004762   0.000000
     8  C    0.000001  -0.000001   0.000002   0.000000   0.000000  -0.027001
     9  C    0.000000   0.000000   0.000000   0.000000   0.000000   0.368625
    10  C    0.000000   0.000000   0.000000   0.000000   0.000000  -0.024162
    11  C   -0.000086  -0.000750  -0.000040  -0.000016   0.000000   0.002329
    12  C    0.001484   0.005345   0.000373  -0.000644  -0.000004   0.000256
    13  C   -0.066663   0.002720   0.002033  -0.023349  -0.000628   0.000000
    14  C    0.000010   0.008485  -0.000001   0.000009   0.000000  -0.000090
    15  C   -0.054587   0.000045   0.253901   0.001797  -0.000048   0.000000
    16  C   -0.011428  -0.026684  -0.000097  -0.167954   0.005692   0.000000
    17  C    0.002400  -0.000005  -0.083844  -0.000141   0.000000  -0.000003
    18  C   -0.001225  -0.072706   0.000004   0.014241   0.000012   0.000000
    19  C    5.088827  -0.023095  -0.001051   0.316041  -0.093953   0.000000
    20  C   -0.023095   5.182972  -0.000002  -0.056621  -0.037635   0.000000
    21  C   -0.001051  -0.000002   5.380981   0.000056   0.000004   0.000000
    22  C    0.316041  -0.056621   0.000056   6.442587   0.066015   0.000000
    23  C   -0.093953  -0.037635   0.000004   0.066015   4.688261   0.000000
    24  H    0.000000   0.000000   0.000000   0.000000   0.000000   0.506127
    25  H    0.000000   0.000000   0.000000   0.000000   0.000000  -0.018261
    26  H    0.000000   0.000000   0.000000   0.000000   0.000000   0.001320
    27  H    0.000000   0.000000   0.000000   0.000000   0.000000  -0.004074
    28  H    0.000000   0.000000  -0.000001   0.000000   0.000000   0.001673
    29  H    0.000000   0.000000   0.000000   0.000000   0.000000   0.000450
    30  H   -0.001927  -0.000009  -0.045484   0.000243  -0.000007   0.000000
    31  H   -0.000179   0.000000   0.004274  -0.000001   0.000000   0.000002
    32  H   -0.000049   0.000000  -0.001105   0.000001   0.000000   0.000000
    33  H   -0.000052   0.000206   0.000000   0.001139   0.000004   0.000000
    34  H    0.365154   0.002584  -0.000054  -0.054238   0.000832   0.000000
    35  H   -0.000086  -0.000002   0.365345   0.000009   0.000000   0.000000
    36  H    0.000012   0.000000   0.350197  -0.000002   0.000000   0.000000
    37  H    0.002884  -0.000002   0.366549  -0.000052  -0.000001   0.000000
    38  H   -0.000299  -0.000099   0.000000   0.012642  -0.031047   0.000000
              25         26         27         28         29         30
     1  F    0.000001   0.004147  -0.000001  -0.000002  -0.000006   0.000000
     2  O    0.000690   0.000000  -0.000001   0.002460  -0.000002   0.001593
     3  O    0.000000   0.000000   0.000000   0.000000   0.000000   0.000000
     4  O    0.000000   0.000000   0.000000   0.000000   0.000000   0.000000
     5  O    0.000000   0.000000   0.000000   0.000000   0.000000  -0.000002
     6  N    0.001547   0.001218  -0.003060   0.319130   0.324433   0.000000
     7  N    0.000000   0.000000   0.000000   0.000000   0.000000  -0.036197
     8  C   -0.018659  -0.025386  -0.028344  -0.049239  -0.049731   0.000000
     9  C    0.361330  -0.022019  -0.023591  -0.006639   0.003840   0.000000
    10  C   -0.022335   0.375848   0.372917   0.006582  -0.008422   0.000000
    11  C   -0.001609  -0.005324   0.001867  -0.004933   0.006693   0.000014
    12  C    0.001640   0.000044  -0.000076   0.003140  -0.000103   0.000591
    13  C   -0.000030   0.000007   0.000000   0.000079   0.000001   0.002707
    14  C   -0.000115   0.000890   0.000222  -0.000388   0.000066   0.000000
    15  C    0.000002   0.000000   0.000000   0.000004   0.000000   0.360230
    16  C   -0.000002  -0.000008   0.000000  -0.000003   0.000000  -0.000041
    17  C    0.000162   0.000000   0.000000  -0.000040   0.000000  -0.028667
    18  C    0.000003  -0.000037   0.000001   0.000004   0.000000   0.000001
    19  C    0.000000   0.000000   0.000000   0.000000   0.000000  -0.001927
    20  C    0.000000   0.000000   0.000000   0.000000   0.000000  -0.000009
    21  C    0.000000   0.000000   0.000000  -0.000001   0.000000  -0.045484
    22  C    0.000000   0.000000   0.000000   0.000000   0.000000   0.000243
    23  C    0.000000   0.000000   0.000000   0.000000   0.000000  -0.000007
    24  H   -0.018261   0.001320  -0.004074   0.001673   0.000450   0.000000
    25  H    0.502264  -0.003776   0.001360   0.000218  -0.000058   0.000000
    26  H   -0.003776   0.476727  -0.018669  -0.000074   0.000155   0.000000
    27  H    0.001360  -0.018669   0.498310  -0.000068   0.004242   0.000000
    28  H    0.000218  -0.000074  -0.000068   0.495536  -0.035535   0.000000
    29  H   -0.000058   0.000155   0.004242  -0.035535   0.487688   0.000000
    30  H    0.000000   0.000000   0.000000   0.000000   0.000000   0.511949
    31  H    0.000046   0.000000   0.000000   0.000003   0.000000   0.000586
    32  H    0.000000   0.000000   0.000000  -0.000010   0.000000  -0.000636
    33  H    0.000000   0.000004   0.000000   0.000000   0.000000   0.000000
    34  H    0.000000   0.000000   0.000000   0.000000   0.000000   0.002729
    35  H    0.000000   0.000000   0.000000   0.000026   0.000000   0.003345
    36  H    0.000000   0.000000   0.000000   0.000000   0.000000  -0.000751
    37  H    0.000000   0.000000   0.000000   0.000000   0.000000  -0.001944
    38  H    0.000000   0.000000   0.000000   0.000000   0.000000   0.000000
              31         32         33         34         35         36
     1  F    0.000000   0.000000  -0.002202   0.000000   0.000000   0.000000
     2  O   -0.035976  -0.025848   0.000000   0.000000   0.006169  -0.000030
     3  O    0.000000   0.000000   0.013976  -0.000003   0.000000   0.000000
     4  O    0.000000   0.000000   0.000000   0.000250   0.000000   0.000000
     5  O    0.000000   0.000000   0.000000   0.020435   0.000000   0.000000
     6  N    0.000000   0.000001   0.000000   0.000000   0.000001   0.000000
     7  N   -0.001197   0.002542  -0.000005  -0.035097  -0.001034   0.002957
     8  C    0.000026  -0.000030  -0.000007   0.000000   0.000003   0.000000
     9  C   -0.000015   0.000005   0.000001   0.000000   0.000000   0.000000
    10  C    0.000001   0.000000   0.000000   0.000000   0.000000   0.000000
    11  C    0.000554   0.000008   0.005090   0.000000  -0.000024   0.000001
    12  C   -0.001352   0.003571  -0.000606  -0.000080   0.001187   0.000008
    13  C    0.003782  -0.000372   0.004316   0.003088   0.000612  -0.000068
    14  C   -0.000017   0.000002  -0.036956   0.000000  -0.000006   0.000000
    15  C   -0.056668  -0.042192   0.000001  -0.001513  -0.041617  -0.038100
    16  C   -0.000172   0.000006  -0.056107  -0.000434  -0.000019   0.000000
    17  C    0.340308   0.373550   0.000000   0.000111  -0.003262   0.000520
    18  C   -0.000002   0.000000   0.377127   0.000001   0.000004   0.000000
    19  C   -0.000179  -0.000049  -0.000052   0.365154  -0.000086   0.000012
    20  C    0.000000   0.000000   0.000206   0.002584  -0.000002   0.000000
    21  C    0.004274  -0.001105   0.000000  -0.000054   0.365345   0.350197
    22  C   -0.000001   0.000001   0.001139  -0.054238   0.000009  -0.000002
    23  C    0.000000   0.000000   0.000004   0.000832   0.000000   0.000000
    24  H    0.000002   0.000000   0.000000   0.000000   0.000000   0.000000
    25  H    0.000046   0.000000   0.000000   0.000000   0.000000   0.000000
    26  H    0.000000   0.000000   0.000004   0.000000   0.000000   0.000000
    27  H    0.000000   0.000000   0.000000   0.000000   0.000000   0.000000
    28  H    0.000003  -0.000010   0.000000   0.000000   0.000026   0.000000
    29  H    0.000000   0.000000   0.000000   0.000000   0.000000   0.000000
    30  H    0.000586  -0.000636   0.000000   0.002729   0.003345  -0.000751
    31  H    0.554666  -0.029782   0.000000  -0.000006   0.000172  -0.000043
    32  H   -0.029782   0.493611   0.000000  -0.000002  -0.000408   0.002156
    33  H    0.000000   0.000000   0.457644   0.000000   0.000000   0.000000
    34  H   -0.000006  -0.000002   0.000000   0.442771   0.000000  -0.000011
    35  H    0.000172  -0.000408   0.000000   0.000000   0.491182  -0.023489
    36  H   -0.000043   0.002156   0.000000  -0.000011  -0.023489   0.532617
    37  H   -0.000062  -0.000019   0.000000   0.000566  -0.023028  -0.023837
    38  H    0.000000   0.000000   0.000000  -0.000017   0.000000   0.000000
              37         38
     1  F    0.000000   0.000000
     2  O    0.000032   0.000000
     3  O    0.000000   0.000173
     4  O    0.000000   0.239669
     5  O    0.000000   0.005422
     6  N    0.000000   0.000000
     7  N   -0.001331   0.000000
     8  C    0.000000   0.000000
     9  C    0.000000   0.000000
    10  C    0.000000   0.000000
    11  C    0.000000   0.000000
    12  C   -0.000082   0.000000
    13  C   -0.000139   0.000000
    14  C    0.000000   0.000000
    15  C   -0.036631   0.000000
    16  C    0.000010   0.000005
    17  C    0.003656   0.000000
    18  C    0.000000   0.000000
    19  C    0.002884  -0.000299
    20  C   -0.000002  -0.000099
    21  C    0.366549   0.000000
    22  C   -0.000052   0.012642
    23  C   -0.000001  -0.031047
    24  H    0.000000   0.000000
    25  H    0.000000   0.000000
    26  H    0.000000   0.000000
    27  H    0.000000   0.000000
    28  H    0.000000   0.000000
    29  H    0.000000   0.000000
    30  H   -0.001944   0.000000
    31  H   -0.000062   0.000000
    32  H   -0.000019   0.000000
    33  H    0.000000   0.000000
    34  H    0.000566  -0.000017
    35  H   -0.023028   0.000000
    36  H   -0.023837   0.000000
    37  H    0.498744   0.000000
    38  H    0.000000   0.411876
 Mulliken charges:
               1
     1  F   -0.286577
     2  O   -0.557468
     3  O   -0.490865
     4  O   -0.540043
     5  O   -0.519521
     6  N   -0.654003
     7  N   -0.835060
     8  C    0.039121
     9  C   -0.350659
    10  C   -0.355096
    11  C   -0.012338
    12  C    0.329684
    13  C    0.374486
    14  C    0.304397
    15  C   -0.102568
    16  C   -0.064267
    17  C   -0.124978
    18  C   -0.208900
    19  C    0.217974
    20  C    0.407987
    21  C   -0.525881
    22  C   -0.211694
    23  C    0.663098
    24  H    0.193082
    25  H    0.195584
    26  H    0.214936
    27  H    0.198967
    28  H    0.268076
    29  H    0.266289
    30  H    0.231676
    31  H    0.221052
    32  H    0.225002
    33  H    0.236430
    34  H    0.252934
    35  H    0.224919
    36  H    0.197864
    37  H    0.214687
    38  H    0.361675
 Sum of Mulliken charges =   0.00000
 Mulliken charges with hydrogens summed into heavy atoms:
               1
     1  F   -0.286577
     2  O   -0.557468
     3  O   -0.490865
     4  O   -0.178369
     5  O   -0.519521
     6  N   -0.119639
     7  N   -0.835060
     8  C    0.039121
     9  C    0.038007
    10  C    0.058806
    11  C   -0.012338
    12  C    0.329684
    13  C    0.374486
    14  C    0.304397
    15  C    0.129108
    16  C   -0.064267
    17  C    0.321076
    18  C    0.027530
    19  C    0.470908
    20  C    0.407987
    21  C    0.111590
    22  C   -0.211694
    23  C    0.663098
 Electronic spatial extent (au):  <R**2>=           7500.0915
 Charge=              0.0000 electrons
 Dipole moment (field-independent basis, Debye):
    X=              3.2425    Y=              7.0335    Z=             -0.9260  Tot=              7.8001
 Quadrupole moment (field-independent basis, Debye-Ang):
   XX=           -128.0313   YY=           -127.3801   ZZ=           -132.0230
   XY=              1.1328   XZ=             -2.4644   YZ=              1.8153
 Traceless Quadrupole moment (field-independent basis, Debye-Ang):
   XX=              1.1135   YY=              1.7647   ZZ=             -2.8782
   XY=              1.1328   XZ=             -2.4644   YZ=              1.8153
 Octapole moment (field-independent basis, Debye-Ang**2):
  XXX=             49.0289  YYY=             61.7107  ZZZ=              0.7608  XYY=             17.2538
  XXY=            -20.1108  XXZ=             26.9692  XZZ=             -9.7137  YZZ=              3.0087
  YYZ=             -3.8110  XYZ=              4.6824
 Hexadecapole moment (field-independent basis, Debye-Ang**3):
 XXXX=          -5773.2816 YYYY=          -2246.6553 ZZZZ=           -444.8042 XXXY=            367.3338
 XXXZ=             69.8429 YYYX=            -60.1496 YYYZ=            -15.7312 ZZZX=             15.0755
 ZZZY=             -5.5247 XXYY=          -1575.9258 XXZZ=          -1185.7995 YYZZ=           -445.4967
 XXYZ=             50.1726 YYXZ=              1.3089 ZZXY=             17.5532
 N-N= 1.983230732069D+03 E-N=-6.587760728001D+03  KE= 1.113843459334D+03
 PrsmSu:  requested number of processors reduced to:   9 ShMem   1 Linda.
 Calling FoFJK, ICntrl=      2127 FMM=F ISym2X=0 I1Cent= 0 IOpClX= 0 NMat=1 NMatS=1 NMatT=0.
 ***** Axes restored to original set *****
 -------------------------------------------------------------------
 Center     Atomic                   Forces (Hartrees/Bohr)
 Number     Number              X              Y              Z
 -------------------------------------------------------------------
      1        9          -0.006398057    0.002879322   -0.001817171
      2        8          -0.014626784   -0.001935862    0.008215340
      3        8           0.000726668    0.006080607    0.000845691
      4        8          -0.005508360    0.007241245    0.000426811
      5        8           0.002421084   -0.003641710    0.000494730
      6        7          -0.008219789   -0.005591401    0.004923662
      7        7           0.002038478    0.004744663    0.000305900
      8        6           0.010329106   -0.000327704    0.008904153
      9        6           0.001010806   -0.014123381   -0.010270671
     10        6          -0.007131648    0.017086939   -0.003700912
     11        6           0.012881873    0.000666469   -0.006708407
     12        6          -0.001412892    0.015804349    0.004841210
     13        6          -0.003408460    0.005647906    0.000483006
     14        6          -0.005395264    0.002450824    0.003006639
     15        6           0.006396930   -0.010455858   -0.006051932
     16        6          -0.002700738   -0.004047232    0.000023305
     17        6           0.000383114   -0.016504478   -0.015017020
     18        6           0.004324256   -0.002399365   -0.001000875
     19        6           0.011210506    0.003084243   -0.000602418
     20        6           0.004865813   -0.000856006   -0.000486903
     21        6          -0.001667029   -0.001302682    0.009591386
     22        6          -0.004720056   -0.007531698    0.001162882
     23        6          -0.014974237   -0.007881160   -0.002536142
     24        1           0.001846527    0.002824771   -0.000549270
     25        1          -0.002048711    0.000911763    0.003748940
     26        1          -0.000513706   -0.002241847    0.003418604
     27        1           0.003464417   -0.001431794   -0.000961484
     28        1           0.003111073    0.002308190   -0.000583773
     29        1           0.002956371    0.002031936   -0.000198803
     30        1          -0.002396566    0.001661758    0.001934419
     31        1           0.002566854   -0.001066457    0.003433812
     32        1           0.001793281    0.002745420    0.000077665
     33        1          -0.002197844   -0.005667544   -0.000410351
     34        1          -0.001040091    0.004786968   -0.000273317
     35        1           0.001394511   -0.000806281   -0.003241156
     36        1           0.000272218    0.001427268   -0.000444766
     37        1          -0.002277236   -0.000008282   -0.001555966
     38        1           0.012643583    0.003436099    0.000573183
 -------------------------------------------------------------------
 Cartesian Forces:  Max     0.017086939 RMS     0.005777102

 GradGradGradGradGradGradGradGradGradGradGradGradGradGradGradGradGradGrad
 Berny optimization.
 FormGI is forming the generalized inverse of G from B-inverse, IUseBI=4.
 Internal  Forces:  Max     0.018361527 RMS     0.003350762
 Search for a local minimum.
 Step number   1 out of a maximum of  225
 All quantities printed in internal units (Hartrees-Bohrs-Radians)
 Mixed Optimization -- RFO/linear search
 Second derivative matrix not updated -- first step.
 ITU=  0
     Eigenvalues ---    0.00403   0.00785   0.00902   0.01021   0.01071
     Eigenvalues ---    0.01080   0.01253   0.01466   0.01517   0.01529
     Eigenvalues ---    0.01575   0.01655   0.01755   0.01904   0.01968
     Eigenvalues ---    0.02057   0.02080   0.02178   0.02193   0.02196
     Eigenvalues ---    0.02268   0.02270   0.02373   0.02498   0.02934
     Eigenvalues ---    0.03137   0.03665   0.03888   0.03994   0.04247
     Eigenvalues ---    0.04598   0.05466   0.05579   0.05686   0.05947
     Eigenvalues ---    0.06529   0.10428   0.10638   0.10754   0.11608
     Eigenvalues ---    0.12716   0.14025   0.15998   0.15999   0.16000
     Eigenvalues ---    0.16000   0.16000   0.16000   0.16000   0.16000
     Eigenvalues ---    0.16000   0.17395   0.18024   0.18733   0.20748
     Eigenvalues ---    0.23415   0.23570   0.24490   0.24818   0.24904
     Eigenvalues ---    0.24978   0.24987   0.24990   0.24994   0.24998
     Eigenvalues ---    0.24999   0.25000   0.25000   0.27562   0.28753
     Eigenvalues ---    0.29664   0.31460   0.32525   0.32731   0.33362
     Eigenvalues ---    0.33518   0.33868   0.33871   0.33907   0.34098
     Eigenvalues ---    0.34158   0.34419   0.34727   0.34728   0.34834
     Eigenvalues ---    0.34900   0.34938   0.34999   0.35065   0.36862
     Eigenvalues ---    0.38157   0.39369   0.40803   0.43035   0.43221
     Eigenvalues ---    0.43412   0.44105   0.44609   0.45973   0.48119
     Eigenvalues ---    0.48438   0.48508   0.50374   0.51896   0.53602
     Eigenvalues ---    0.53674   0.86306   0.88469
 RFO step:  Lambda=-8.70408094D-03 EMin= 4.03367019D-03
 Linear search not attempted -- first point.
 Iteration  1 RMS(Cart)=  0.05939007 RMS(Int)=  0.00132380
 Iteration  2 RMS(Cart)=  0.00196788 RMS(Int)=  0.00011255
 Iteration  3 RMS(Cart)=  0.00000364 RMS(Int)=  0.00011252
 Iteration  4 RMS(Cart)=  0.00000000 RMS(Int)=  0.00011252
 Variable       Old X    -DE/DX   Delta X   Delta X   Delta X     New X
                                 (Linear)    (Quad)   (Total)
    R1        2.57999   0.00612   0.00000   0.01160   0.01160   2.59159
    R2        2.60059   0.01527   0.00000   0.03042   0.03040   2.63099
    R3        2.71498   0.01836   0.00000   0.04795   0.04795   2.76293
    R4        2.34684   0.00604   0.00000   0.00693   0.00693   2.35377
    R5        2.56330   0.01265   0.00000   0.02318   0.02318   2.58648
    R6        1.86190   0.01195   0.00000   0.02331   0.02331   1.88521
    R7        2.33647   0.00427   0.00000   0.00478   0.00478   2.34125
    R8        2.74137   0.00478   0.00000   0.01224   0.01224   2.75362
    R9        1.94327  -0.00179   0.00000  -0.00408  -0.00408   1.93919
   R10        1.94098  -0.00253   0.00000  -0.00573  -0.00573   1.93525
   R11        2.64164   0.00627   0.00000   0.01209   0.01204   2.65368
   R12        2.78394   0.01204   0.00000   0.03327   0.03328   2.81722
   R13        2.55027   0.00534   0.00000   0.00975   0.00976   2.56002
   R14        2.87250   0.00550   0.00000   0.01646   0.01651   2.88900
   R15        2.83947   0.00552   0.00000   0.01599   0.01600   2.85546
   R16        2.83194  -0.00492   0.00000  -0.01473  -0.01473   2.81721
   R17        2.84871   0.00916   0.00000   0.03008   0.03002   2.87873
   R18        2.05837  -0.00335   0.00000  -0.00936  -0.00936   2.04902
   R19        2.05945  -0.00433   0.00000  -0.01212  -0.01212   2.04733
   R20        2.05570  -0.00377   0.00000  -0.01048  -0.01048   2.04522
   R21        2.06121  -0.00380   0.00000  -0.01066  -0.01066   2.05055
   R22        2.64313  -0.00510   0.00000  -0.01118  -0.01113   2.63200
[...]
    24  H    0.000000  -0.026291   0.368794  -0.024157   0.002403   0.000255
    25  H    0.000000  -0.019797   0.361065  -0.021418   0.000377   0.001205
    26  H    0.000000  -0.027029  -0.017664   0.353957  -0.007141   0.000021
    27  H    0.000000  -0.030283  -0.025206   0.373694   0.002210  -0.000058
    28  H    0.000000  -0.046002  -0.005470   0.005872  -0.007856   0.002894
    29  H    0.000000  -0.047790   0.002930  -0.007097   0.005840  -0.000068
    30  H   -0.034245   0.000000   0.000000   0.000000   0.000013   0.000552
    31  H   -0.000840  -0.000013  -0.000031   0.000000   0.000639  -0.001508
    32  H    0.002411  -0.000030   0.000001   0.000000  -0.000006   0.003421
    33  H   -0.000006  -0.000010   0.000001  -0.000001   0.005723  -0.000626
    34  H   -0.033547   0.000000   0.000000   0.000000   0.000000  -0.000072
    35  H   -0.001054  -0.000005   0.000000   0.000000  -0.000001   0.001177
    36  H    0.002809   0.000000   0.000000   0.000000   0.000001   0.000009
    37  H   -0.000862   0.000000   0.000000   0.000000   0.000000  -0.000092
    38  H    0.000000   0.000000   0.000000   0.000000   0.000000   0.000000
              13         14         15         16         17         18
     1  F   -0.000192   0.321206   0.000000   0.003013   0.000000  -0.058352
     2  O   -0.062954   0.002497  -0.041567   0.003561   0.252409  -0.000252
     3  O    0.003696   0.000578   0.000000  -0.122552   0.000000   0.003210
     4  O   -0.000003   0.000000   0.000000   0.000116   0.000000   0.000000
     5  O    0.000002   0.000000   0.000003  -0.000017   0.000000   0.000000
     6  N    0.000032   0.000991  -0.000004  -0.000010   0.000061   0.000003
     7  N    0.174335  -0.000437   0.230452  -0.034567  -0.052799   0.005858
     8  C    0.008675  -0.067828   0.000033  -0.001003  -0.000072   0.005907
     9  C    0.000255   0.006861   0.000002  -0.000022   0.000056  -0.000056
    10  C   -0.000070  -0.009424   0.000000   0.000005   0.000000  -0.000048
    11  C   -0.039965   0.148554  -0.000734  -0.046307   0.001982  -0.103287
    12  C    0.159492   0.003057  -0.017532   0.018006  -0.076689  -0.053366
    13  C    5.442045  -0.054918  -0.052470   0.192323  -0.008568  -0.058170
    14  C   -0.054918   5.221062  -0.000002  -0.010463  -0.000055   0.197373
    15  C   -0.052470  -0.000002   5.429012   0.000891   0.206061  -0.000081
    16  C    0.192323  -0.010463   0.000891   6.088204   0.000768   0.225730
    17  C   -0.008568  -0.000055   0.206061   0.000768   5.215847   0.000012
    18  C   -0.058170   0.197373  -0.000081   0.225730   0.000012   5.721224
    19  C   -0.066823   0.000009  -0.049838  -0.013715   0.002094  -0.001228
    20  C    0.003111   0.008460   0.000045  -0.020086  -0.000004  -0.073669
    21  C    0.002373  -0.000002   0.254641  -0.000106  -0.086230   0.000004
    22  C   -0.025063   0.000004   0.001906  -0.167354  -0.000132   0.014800
    23  C   -0.000622   0.000000  -0.000043   0.005790   0.000001   0.000005
    24  H    0.000000  -0.000107   0.000000   0.000000  -0.000005   0.000000
    25  H   -0.000050  -0.000039   0.000000  -0.000003   0.000006   0.000022
    26  H    0.000008  -0.000770   0.000000  -0.000021   0.000000   0.000268
    27  H    0.000000   0.000207   0.000000   0.000000   0.000000   0.000001
    28  H    0.000282  -0.000296   0.000022  -0.000008  -0.000262   0.000008
    29  H    0.000002   0.000012   0.000000   0.000000  -0.000001   0.000000
    30  H    0.002588   0.000000   0.360179  -0.000038  -0.028249   0.000001
    31  H    0.003629  -0.000014  -0.054902  -0.000199   0.339129  -0.000004
    32  H   -0.000281   0.000002  -0.040754   0.000005   0.371223   0.000000
    33  H    0.004449  -0.035898   0.000001  -0.057934   0.000000   0.373462
    34  H    0.003074   0.000000  -0.001353  -0.000480   0.000075   0.000000
    35  H    0.000008  -0.000007  -0.042578  -0.000020  -0.004260   0.000006
    36  H   -0.000054   0.000000  -0.038339   0.000000   0.001004   0.000000
    37  H   -0.000178   0.000000  -0.036465   0.000006   0.003690   0.000000
    38  H    0.000000   0.000000   0.000000   0.000005   0.000000   0.000000
              19         20         21         22         23         24
     1  F    0.000000  -0.000004   0.000000   0.000000   0.000000  -0.000002
     2  O   -0.000090  -0.000001  -0.003474   0.000001   0.000000  -0.000031
     3  O    0.003278   0.635623   0.000000  -0.113467  -0.004093   0.000000
     4  O    0.003310   0.002138   0.000000  -0.093089   0.223489   0.000000
     5  O    0.003422   0.001971   0.000000  -0.115013   0.517450   0.000000
     6  N    0.000000   0.000000  -0.000003   0.000000   0.000000  -0.000079
     7  N    0.251225  -0.035785  -0.061499  -0.014691   0.004896   0.000000
     8  C    0.000001  -0.000001   0.000002   0.000000   0.000000  -0.026291
     9  C    0.000000   0.000000   0.000000   0.000000   0.000000   0.368794
    10  C    0.000000   0.000000   0.000000   0.000000   0.000000  -0.024157
    11  C   -0.000088  -0.000874  -0.000048  -0.000016   0.000000   0.002403
    12  C    0.001629   0.005619   0.000149  -0.000710  -0.000004   0.000255
    13  C   -0.066823   0.003111   0.002373  -0.025063  -0.000622   0.000000
    14  C    0.000009   0.008460  -0.000002   0.000004   0.000000  -0.000107
    15  C   -0.049838   0.000045   0.254641   0.001906  -0.000043   0.000000
    16  C   -0.013715  -0.020086  -0.000106  -0.167354   0.005790   0.000000
    17  C    0.002094  -0.000004  -0.086230  -0.000132   0.000001  -0.000005
    18  C   -0.001228  -0.073669   0.000004   0.014800   0.000005   0.000000
    19  C    5.088949  -0.023219  -0.000314   0.318548  -0.096407   0.000000
    20  C   -0.023219   5.183589  -0.000004  -0.061578  -0.037826   0.000000
    21  C   -0.000314  -0.000004   5.383011   0.000014   0.000002   0.000000
    22  C    0.318548  -0.061578   0.000014   6.451355   0.062521   0.000000
    23  C   -0.096407  -0.037826   0.000002   0.062521   4.686949   0.000000
    24  H    0.000000   0.000000   0.000000   0.000000   0.000000   0.504533
    25  H    0.000000   0.000000   0.000000   0.000000   0.000000  -0.018447
    26  H    0.000000   0.000000   0.000000   0.000000   0.000000   0.001025
    27  H    0.000000   0.000000   0.000000   0.000000   0.000000  -0.004079
    28  H    0.000000   0.000000   0.000000   0.000000   0.000000   0.001249
    29  H    0.000000   0.000000   0.000000   0.000000   0.000000   0.000399
    30  H   -0.001032  -0.000007  -0.041527   0.000245  -0.000007   0.000000
    31  H   -0.000123   0.000001   0.004114  -0.000003   0.000000   0.000003
    32  H   -0.000045   0.000000  -0.000403   0.000000   0.000000   0.000000
    33  H   -0.000056   0.000152   0.000000   0.001292   0.000004   0.000000
    34  H    0.363680   0.002761   0.000012  -0.058579   0.000625   0.000000
    35  H   -0.000080  -0.000002   0.362982   0.000008   0.000000   0.000000
    36  H   -0.000003   0.000000   0.350821  -0.000001   0.000000   0.000000
    37  H    0.002306  -0.000001   0.365767  -0.000058   0.000000   0.000000
    38  H   -0.000287  -0.000067   0.000000   0.011780  -0.028634   0.000000
              25         26         27         28         29         30
     1  F    0.000017   0.023555   0.000100   0.000000  -0.000001   0.000000
     2  O   -0.000075   0.000000  -0.000001   0.018219   0.000082   0.001485
     3  O    0.000000   0.000000   0.000000   0.000000   0.000000   0.000000
     4  O    0.000000   0.000000   0.000000   0.000000   0.000000   0.000000
     5  O    0.000000   0.000000   0.000000   0.000000   0.000000  -0.000002
     6  N    0.001478   0.001145  -0.002902   0.314399   0.329062   0.000000
     7  N    0.000000   0.000000   0.000000   0.000000   0.000000  -0.034245
     8  C   -0.019797  -0.027029  -0.030283  -0.046002  -0.047790   0.000000
     9  C    0.361065  -0.017664  -0.025206  -0.005470   0.002930   0.000000
    10  C   -0.021418   0.353957   0.373694   0.005872  -0.007097   0.000000
    11  C    0.000377  -0.007141   0.002210  -0.007856   0.005840   0.000013
    12  C    0.001205   0.000021  -0.000058   0.002894  -0.000068   0.000552
    13  C   -0.000050   0.000008   0.000000   0.000282   0.000002   0.002588
    14  C   -0.000039  -0.000770   0.000207  -0.000296   0.000012   0.000000
    15  C    0.000000   0.000000   0.000000   0.000022   0.000000   0.360179
    16  C   -0.000003  -0.000021   0.000000  -0.000008   0.000000  -0.000038
    17  C    0.000006   0.000000   0.000000  -0.000262  -0.000001  -0.028249
    18  C    0.000022   0.000268   0.000001   0.000008   0.000000   0.000001
    19  C    0.000000   0.000000   0.000000   0.000000   0.000000  -0.001032
    20  C    0.000000   0.000000   0.000000   0.000000   0.000000  -0.000007
    21  C    0.000000   0.000000   0.000000   0.000000   0.000000  -0.041527
    22  C    0.000000   0.000000   0.000000   0.000000   0.000000   0.000245
    23  C    0.000000   0.000000   0.000000   0.000000   0.000000  -0.000007
    24  H   -0.018447   0.001025  -0.004079   0.001249   0.000399   0.000000
    25  H    0.501142  -0.003354   0.001417   0.000168  -0.000054   0.000000
    26  H   -0.003354   0.471641  -0.016263  -0.000068   0.000164   0.000000
    27  H    0.001417  -0.016263   0.499335  -0.000045   0.004376   0.000000
    28  H    0.000168  -0.000068  -0.000045   0.467532  -0.029664   0.000000
    29  H   -0.000054   0.000164   0.004376  -0.029664   0.473422   0.000000
    30  H    0.000000   0.000000   0.000000   0.000000   0.000000   0.505117
    31  H    0.000021   0.000000   0.000000   0.000045   0.000000   0.000816
    32  H    0.000000   0.000000   0.000000  -0.000129   0.000000  -0.000690
    33  H    0.000000   0.000008   0.000000   0.000000   0.000000   0.000000
    34  H    0.000000   0.000000   0.000000   0.000000   0.000000   0.002603
    35  H    0.000000   0.000000   0.000000   0.000178  -0.000001   0.003261
    36  H    0.000000   0.000000   0.000000  -0.000001   0.000000  -0.001067
    37  H    0.000000   0.000000   0.000000   0.000000   0.000000  -0.001327
    38  H    0.000000   0.000000   0.000000   0.000000   0.000000   0.000000
              31         32         33         34         35         36
     1  F    0.000000   0.000000  -0.001939   0.000000   0.000000   0.000000
     2  O   -0.031307  -0.023946   0.000000   0.000000   0.010413  -0.000025
     3  O    0.000000   0.000000   0.015566  -0.000002   0.000000   0.000000
     4  O    0.000000   0.000000   0.000000   0.000284   0.000000   0.000000
     5  O    0.000000   0.000000   0.000000   0.022783   0.000000   0.000000
     6  N   -0.000003   0.000014   0.000000   0.000000   0.000018   0.000000
     7  N   -0.000840   0.002411  -0.000006  -0.033547  -0.001054   0.002809
     8  C   -0.000013  -0.000030  -0.000010   0.000000  -0.000005   0.000000
     9  C   -0.000031   0.000001   0.000001   0.000000   0.000000   0.000000
    10  C    0.000000   0.000000  -0.000001   0.000000   0.000000   0.000000
    11  C    0.000639  -0.000006   0.005723   0.000000  -0.000001   0.000001
    12  C   -0.001508   0.003421  -0.000626  -0.000072   0.001177   0.000009
    13  C    0.003629  -0.000281   0.004449   0.003074   0.000008  -0.000054
    14  C   -0.000014   0.000002  -0.035898   0.000000  -0.000007   0.000000
    15  C   -0.054902  -0.040754   0.000001  -0.001353  -0.042578  -0.038339
    16  C   -0.000199   0.000005  -0.057934  -0.000480  -0.000020   0.000000
    17  C    0.339129   0.371223   0.000000   0.000075  -0.004260   0.001004
    18  C   -0.000004   0.000000   0.373462   0.000000   0.000006   0.000000
    19  C   -0.000123  -0.000045  -0.000056   0.363680  -0.000080  -0.000003
    20  C    0.000001   0.000000   0.000152   0.002761  -0.000002   0.000000
    21  C    0.004114  -0.000403   0.000000   0.000012   0.362982   0.350821
    22  C   -0.000003   0.000000   0.001292  -0.058579   0.000008  -0.000001
    23  C    0.000000   0.000000   0.000004   0.000625   0.000000   0.000000
    24  H    0.000003   0.000000   0.000000   0.000000   0.000000   0.000000
    25  H    0.000021   0.000000   0.000000   0.000000   0.000000   0.000000
    26  H    0.000000   0.000000   0.000008   0.000000   0.000000   0.000000
    27  H    0.000000   0.000000   0.000000   0.000000   0.000000   0.000000
    28  H    0.000045  -0.000129   0.000000   0.000000   0.000178  -0.000001
    29  H    0.000000   0.000000   0.000000   0.000000  -0.000001   0.000000
    30  H    0.000816  -0.000690   0.000000   0.002603   0.003261  -0.001067
    31  H    0.539523  -0.027582   0.000000  -0.000003   0.000274  -0.000052
    32  H   -0.027582   0.486510   0.000000  -0.000001  -0.000496   0.001905
    33  H    0.000000   0.000000   0.457475   0.000000   0.000000   0.000000
    34  H   -0.000003  -0.000001   0.000000   0.441535   0.000000  -0.000008
    35  H    0.000274  -0.000496   0.000000   0.000000   0.483572  -0.023399
    36  H   -0.000052   0.001905   0.000000  -0.000008  -0.023399   0.532126
    37  H   -0.000057  -0.000032   0.000000   0.000322  -0.021648  -0.023262
    38  H    0.000000   0.000000   0.000000  -0.000016   0.000000   0.000000
              37         38
     1  F    0.000000   0.000000
     2  O    0.000076   0.000000
     3  O    0.000000   0.000205
     4  O    0.000000   0.237644
     5  O    0.000000   0.004293
     6  N    0.000000   0.000000
     7  N   -0.000862   0.000000
     8  C    0.000000   0.000000
     9  C    0.000000   0.000000
    10  C    0.000000   0.000000
    11  C    0.000000   0.000000
    12  C   -0.000092   0.000000
    13  C   -0.000178   0.000000
    14  C    0.000000   0.000000
    15  C   -0.036465   0.000000
    16  C    0.000006   0.000005
    17  C    0.003690   0.000000
    18  C    0.000000   0.000000
    19  C    0.002306  -0.000287
    20  C   -0.000001  -0.000067
    21  C    0.365767   0.000000
    22  C   -0.000058   0.011780
    23  C    0.000000  -0.028634
    24  H    0.000000   0.000000
    25  H    0.000000   0.000000
    26  H    0.000000   0.000000
    27  H    0.000000   0.000000
    28  H    0.000000   0.000000
    29  H    0.000000   0.000000
    30  H   -0.001327   0.000000
    31  H   -0.000057   0.000000
    32  H   -0.000032   0.000000
    33  H    0.000000   0.000000
    34  H    0.000322  -0.000016
    35  H   -0.021648   0.000000
    36  H   -0.023262   0.000000
    37  H    0.496405   0.000000
    38  H    0.000000   0.414156
 Mulliken charges:
               1
     1  F   -0.281516
     2  O   -0.544119
     3  O   -0.489503
     4  O   -0.540258
     5  O   -0.518847
     6  N   -0.686414
     7  N   -0.826634
     8  C    0.053626
     9  C   -0.357342
    10  C   -0.364266
    11  C   -0.005588
    12  C    0.335555
    13  C    0.370001
    14  C    0.269389
    15  C   -0.106585
    16  C   -0.063519
    17  C   -0.137090
    18  C   -0.199382
    19  C    0.214898
    20  C    0.409657
    21  C   -0.530285
    22  C   -0.212720
    23  C    0.665902
    24  H    0.194537
    25  H    0.196322
    26  H    0.220517
    27  H    0.197499
    28  H    0.278933
    29  H    0.268387
    30  H    0.231331
    31  H    0.228448
    32  H    0.228905
    33  H    0.238335
    34  H    0.256307
    35  H    0.231652
    36  H    0.197535
    37  H    0.215410
    38  H    0.360921
 Sum of Mulliken charges =   0.00000
 Mulliken charges with hydrogens summed into heavy atoms:
               1
     1  F   -0.281516
     2  O   -0.544119
     3  O   -0.489503
     4  O   -0.179337
     5  O   -0.518847
     6  N   -0.139094
     7  N   -0.826634
     8  C    0.053626
     9  C    0.033516
    10  C    0.053749
    11  C   -0.005588
    12  C    0.335555
    13  C    0.370001
    14  C    0.269389
    15  C    0.124747
    16  C   -0.063519
    17  C    0.320263
    18  C    0.038954
    19  C    0.471205
    20  C    0.409657
    21  C    0.114312
    22  C   -0.212720
    23  C    0.665902
 Electronic spatial extent (au):  <R**2>=           7484.3633
 Charge=              0.0000 electrons
 Dipole moment (field-independent basis, Debye):
    X=              2.7817    Y=              6.7930    Z=             -1.5025  Tot=              7.4927
 Quadrupole moment (field-independent basis, Debye-Ang):
   XX=           -130.2283   YY=           -125.7302   ZZ=           -132.6750
   XY=              1.8486   XZ=             -1.6809   YZ=             -0.1265
 Traceless Quadrupole moment (field-independent basis, Debye-Ang):
   XX=             -0.6838   YY=              3.8143   ZZ=             -3.1306
   XY=              1.8486   XZ=             -1.6809   YZ=             -0.1265
 Octapole moment (field-independent basis, Debye-Ang**2):
  XXX=             32.6869  YYY=             65.5463  ZZZ=             -2.6911  XYY=             19.7881
  XXY=            -19.3762  XXZ=             13.0439  XZZ=            -14.1498  YZZ=              1.1524
  YYZ=             -5.5792  XYZ=             -1.9916
 Hexadecapole moment (field-independent basis, Debye-Ang**3):
 XXXX=          -5797.9646 YYYY=          -2284.1686 ZZZZ=           -418.0831 XXXY=            444.6730
 XXXZ=             99.6700 YYYX=            -41.7174 YYYZ=            -18.3991 ZZZX=              7.8681
 ZZZY=            -14.8014 XXYY=          -1555.5478 XXZZ=          -1187.1935 YYZZ=           -453.1689
 XXYZ=             30.2268 YYXZ=              9.5861 ZZXY=             12.5631
 N-N= 1.983082475575D+03 E-N=-6.587312348772D+03  KE= 1.113622113550D+03
 1\1\GINC-NODE036\FOpt\RB3LYP\3-21G\C16H15F1N2O4\SUPERCOMPUTO1\06-Jul-2
 020\0\\# opt b3lyp/3-21g geom=connectivity\\Title Card Required\\0,1\F
 ,-14.6376029759,-8.5006699611,8.5678225727\O,-13.8306714393,-13.225855
 2284,8.4067142279\O,-9.6661807225,-8.8172284716,8.4306369546\O,-7.1744
 856548,-9.9101305806,8.3439815297\O,-6.9985784872,-12.1856951376,8.332
 3688008\N,-16.1085606014,-12.0508513366,9.6126043922\N,-11.0385272678,
 -12.7216374932,8.4360951128\C,-15.7271134024,-11.2427165292,8.47304619
 49\C,-16.3419377682,-11.474594991,7.0727137731\C,-16.7470966313,-10.26
 75059658,7.9168773426\C,-14.2715581282,-10.871981313,8.4717346294\C,-1
 3.3425179133,-11.9116078715,8.4378849503\C,-11.95960745,-11.6627170114
 ,8.4411154534\C,-13.7686426081,-9.5645446895,8.5185372301\C,-11.549203
 1076,-14.1157877948,8.5791024894\C,-11.4931807801,-10.3400490663,8.450
 3981556\C,-12.8796154508,-14.1813352269,7.8153334297\C,-12.4148368177,
 -9.2959952455,8.4880786241\C,-9.7115879634,-12.4516548034,8.4114486299
 \C,-10.0366706563,-10.0054812291,8.4255865986\C,-11.7354182643,-14.480
 4544453,10.0616520473\C,-9.1780003617,-11.1896980709,8.3951218304\C,-7
 .7086750045,-11.1719092589,8.354397803\H,-17.0530836665,-12.2888106152
 ,6.9894455462\H,-15.7172664965,-11.3009909817,6.2045039109\H,-16.40040
 49435,-9.2882611077,7.6294652021\H,-17.7294480346,-10.2917667745,8.376
 6698106\H,-15.7644301664,-13.008755034,9.5358517972\H,-17.1009790488,-
 11.9972790527,9.8390789304\H,-10.8220421515,-14.77803317,8.0993216188\
 H,-12.7250017071,-13.9442008468,6.7571928444\H,-13.3449560306,-15.1609
 734123,7.9233379804\H,-12.0409791687,-8.2818361485,8.5057541524\H,-9.0
 307461617,-13.2956814004,8.4023450823\H,-12.5260139528,-13.86180064,10
 .4924605863\H,-12.0224604862,-15.5338188155,10.1509166377\H,-10.806597
 2534,-14.3195674383,10.6154194904\H,-6.1823212749,-10.0081228405,8.317
 9836373\\Version=ES64L-G09RevD.01\State=1-A\HF=-1122.7516601\RMSD=3.79
 6e-09\RMSF=1.470e-05\Dipole=-1.0979191,-2.7107159,-0.3693791\Quadrupol
 e=-0.5290383,2.80371,-2.2746717,1.4930994,1.1467397,-0.3413828\PG=C01 
 [X(C16H15F1N2O4)]\\@


 REVOLUTIONS HAVE NEVER LIGHTENED THE BURDEN OF TYRANNY:
 THEY HAVE MERELY SHIFTED IT TO OTHER SHOULDERS.
                                   -- G. B. SHAW (1903)
 Job cpu time:       0 days  0 hours 56 minutes 20.9 seconds.
 File lengths (MBytes):  RWF=     38 Int=      0 D2E=      0 Chk=      6 Scr=      1
 Normal termination of Gaussian 09 at Mon Jul  6 12:39:10 2020.
