 Entering Gaussian System, Link 0=g09
 Input=nitrofurantoina.gjf
 Output=nitrofurantoina.log
 Initial command:
 /usr/local/cluster_programs/g09/l1.exe "/tmp/scratch/64172.prometeo/Gau-28076.inp" -scrdir="/tmp/scratch/64172.prometeo/"
 Entering Link 1 = /usr/local/cluster_programs/g09/l1.exe PID=     28077.
  
 Copyright (c) 1988,1990,1992,1993,1995,1998,2003,2009,2013,
            Gaussian, Inc.  All Rights Reserved.
  
 This is part of the Gaussian(R) 09 program.  It is based on
 the Gaussian(R) 03 system (copyright 2003, Gaussian, Inc.),
 the Gaussian(R) 98 system (copyright 1998, Gaussian, Inc.),
 the Gaussian(R) 94 system (copyright 1995, Gaussian, Inc.),
 the Gaussian 92(TM) system (copyright 1992, Gaussian, Inc.),
 the Gaussian 90(TM) system (copyright 1990, Gaussian, Inc.),
 the Gaussian 88(TM) system (copyright 1988, Gaussian, Inc.),
 the Gaussian 86(TM) system (copyright 1986, Carnegie Mellon
 University), and the Gaussian 82(TM) system (copyright 1983,
 Carnegie Mellon University). Gaussian is a federally registered
 trademark of Gaussian, Inc.
  
 This software contains proprietary and confidential information,
 including trade secrets, belonging to Gaussian, Inc.
  
 This software is provided under written license and may be
 used, copied, transmitted, or stored only in accord with that
 written license.
  
 The following legend is applicable only to US Government
 contracts under FAR:
  
                    RESTRICTED RIGHTS LEGEND
  
 Use, reproduction and disclosure by the US Government is
 subject to restrictions as set forth in subparagraphs (a)
 and (c) of the Commercial Computer Software - Restricted
 Rights clause in FAR 52.227-19.
  
 Gaussian, Inc.
 340 Quinnipiac St., Bldg. 40, Wallingford CT 06492
  
  
 ---------------------------------------------------------------
 Warning -- This program may not be used in any manner that
 competes with the business of Gaussian, Inc. or will provide
 assistance to any competitor of Gaussian, Inc.  The licensee
 of this program is prohibited from giving any competitor of
 Gaussian, Inc. access to this program.  By using this program,
 the user acknowledges that Gaussian, Inc. is engaged in the
 business of creating and licensing software in the field of
 computational chemistry and represents and warrants to the
 licensee that it is not a competitor of Gaussian, Inc. and that
 it will not use this program in any manner prohibited above.
 ---------------------------------------------------------------
  

 Cite this work as:
 Gaussian 09, Revision D.01,
 M. J. Frisch, G. W. Trucks, H. B. Schlegel, G. E. Scuseria, 
 M. A. Robb, J. R. Cheeseman, G. Scalmani, V. Barone, B. Mennucci, 
 G. A. Petersson, H. Nakatsuji, M. Caricato, X. Li, H. P. Hratchian, 
 A. F. Izmaylov, J. Bloino, G. Zheng, J. L. Sonnenberg, M. Hada, 
 M. Ehara, K. Toyota, R. Fukuda, J. Hasegawa, M. Ishida, T. Nakajima, 
 Y. Honda, O. Kitao, H. Nakai, T. Vreven, J. A. Montgomery, Jr., 
 J. E. Peralta, F. Ogliaro, M. Bearpark, J. J. Heyd, E. Brothers, 
 K. N. Kudin, V. N. Staroverov, T. Keith, R. Kobayashi, J. Normand, 
 K. Raghavachari, A. Rendell, J. C. Burant, S. S. Iyengar, J. Tomasi, 
 M. Cossi, N. Rega, J. M. Millam, M. Klene, J. E. Knox, J. B. Cross, 
 V. Bakken, C. Adamo, J. Jaramillo, R. Gomperts, R. E. Stratmann, 
 O. Yazyev, A. J. Austin, R. Cammi, C. Pomelli, J. W. Ochterski, 
 R. L. Martin, K. Morokuma, V. G. Zakrzewski, G. A. Voth, 
 P. Salvador, J. J. Dannenberg, S. Dapprich, A. D. Daniels, 
 O. Farkas, J. B. Foresman, J. V. Ortiz, J. Cioslowski, 
 and D. J. Fox, Gaussian, Inc., Wallingford CT, 2013.
 
 ******************************************
 Gaussian 09:  ES64L-G09RevD.01 24-Apr-2013
                21-Jul-2020 
 ******************************************
 %nprocshared=20
 Will use up to   20 processors via shared memory.
 -----------------------------------------------------
 #opt M06/lanl2dz integral=ultrafine geom=connectivity
 -----------------------------------------------------
 1/14=-1,18=20,19=15,26=4,38=1,57=2/1,3;
 2/9=110,12=2,17=6,18=5,40=1/2;
 3/5=6,6=3,11=2,16=1,25=1,30=1,71=1,74=-54,75=-5/1,2,3;
 4//1;
 5/5=2,38=5/2;
 6/7=2,8=2,9=2,10=2,28=1/1;
 7//1,2,3,16;
 1/14=-1,18=20,19=15,26=4/3(2);
 2/9=110/2;
 99//99;
 2/9=110/2;
 3/5=6,6=3,11=2,16=1,25=1,30=1,71=1,74=-54,75=-5/1,2,3;
 4/5=5,16=3,69=1/1;
 5/5=2,38=5/2;
 7//1,2,3,16;
 1/14=-1,18=20,19=15,26=4/3(-5);
 2/9=110/2;
 6/7=2,8=2,9=2,10=2,19=2,28=1/1;
 99/9=1/99;
 -------------------
 Title Card Required
 -------------------
 Symbolic Z-matrix:
 Charge =  0 Multiplicity = 1
 O(PDBName=O1,ResName=MOL,ResNum=1) 0    -2.28986  -0.62897  -0.00004  L 
 O(PDBName=O2,ResName=MOL,ResNum=1) 0     5.13095  -2.00466  -0.00019  L 
 O(PDBName=O3,ResName=MOL,ResNum=1) 0     3.38178   2.31265   0.0006   L 
 O(PDBName=O4,ResName=MOL,ResNum=1) 0    -5.75059   0.12427   0.00015  L 
 O(PDBName=O5,ResName=MOL,ResNum=1) 0    -4.63004  -1.8924    0.00046  L 
 N(PDBName=N6,ResName=MOL,ResNum=1) 0     2.3439    0.18494  -0.0004   L 
 N(PDBName=N7,ResName=MOL,ResNum=1) 0     4.56928   0.27032   0.00051  L 
 N(PDBName=N8,ResName=MOL,ResNum=1) 0     1.06249   0.67895  -0.00004  L 
 N(PDBName=N9,ResName=MOL,ResNum=1) 0    -4.68768  -0.61038   0.00021  L 
 C(PDBName=C10,ResName=MOL,ResNum=1) 0     2.77483  -1.22089  -0.00041  L 
 C(PDBName=C11,ResName=MOL,ResNum=1) 0     4.31367  -1.09434   0.00021  L 
 C(PDBName=C12,ResName=MOL,ResNum=1) 0     3.42151   1.09588  -0.00016  L 
 C(PDBName=C13,ResName=MOL,ResNum=1) 0    -1.26821   0.325    -0.00017  L 
 C(PDBName=C14,ResName=MOL,ResNum=1) 0     0.0791   -0.166    -0.00005  L 
 C(PDBName=C15,ResName=MOL,ResNum=1) 0    -1.80937   1.59371  -0.00047  L 
 C(PDBName=C16,ResName=MOL,ResNum=1) 0    -3.47056   0.09566  -0.00004  L 
 C(PDBName=C17,ResName=MOL,ResNum=1) 0    -3.22381   1.44226  -0.00028  L 
 H(PDBName=H18,ResName=MOL,ResNum=1) 0     2.43934  -1.75539   0.8951   L 
 H(PDBName=H19,ResName=MOL,ResNum=1) 0     2.43976  -1.75536  -0.89605  L 
 H(PDBName=H20,ResName=MOL,ResNum=1) 0     5.50369   0.66265   0.00079  L 
 H(PDBName=H21,ResName=MOL,ResNum=1) 0     0.18141  -1.24917  -0.00025  L 
 H(PDBName=H22,ResName=MOL,ResNum=1) 0    -1.24347   2.50813  -0.00081  L 
 H(PDBName=H23,ResName=MOL,ResNum=1) 0    -3.97745   2.20765  -0.00032  L 
 
 Center=      0.23002822      0.04889052     -0.00007139
 Residue   1 PDB Number     1_0 MOL charge    0.00000000 layers R        AvRTP=      0.00000000      0.00000000     90.00000000

 GradGradGradGradGradGradGradGradGradGradGradGradGradGradGradGradGradGrad
 Berny optimization.
 Initialization pass.
                           ----------------------------
                           !    Initial Parameters    !
                           ! (Angstroms and Degrees)  !
 --------------------------                            --------------------------
 ! Name  Definition              Value          Derivative Info.                !
 --------------------------------------------------------------------------------
 ! R1    R(1,13)                 1.3978         estimate D2E/DX2                !
 ! R2    R(1,16)                 1.3853         estimate D2E/DX2                !
 ! R3    R(2,11)                 1.2234         estimate D2E/DX2                !
 ! R4    R(3,12)                 1.2174         estimate D2E/DX2                !
 ! R5    R(4,9)                  1.2921         estimate D2E/DX2                !
 ! R6    R(5,9)                  1.2833         estimate D2E/DX2                !
 ! R7    R(6,8)                  1.3733         estimate D2E/DX2                !
 ! R8    R(6,10)                 1.4704         estimate D2E/DX2                !
 ! R9    R(6,12)                 1.411          estimate D2E/DX2                !
 ! R10   R(7,11)                 1.3884         estimate D2E/DX2                !
 ! R11   R(7,12)                 1.4138         estimate D2E/DX2                !
 ! R12   R(7,20)                 1.0134         estimate D2E/DX2                !
 ! R13   R(8,14)                 1.2965         estimate D2E/DX2                !
 ! R14   R(9,16)                 1.4071         estimate D2E/DX2                !
 ! R15   R(10,11)                1.544          estimate D2E/DX2                !
 ! R16   R(10,18)                1.0955         estimate D2E/DX2                !
 ! R17   R(10,19)                1.0955         estimate D2E/DX2                !
 ! R18   R(13,14)                1.434          estimate D2E/DX2                !
 ! R19   R(13,15)                1.3793         estimate D2E/DX2                !
 ! R20   R(14,21)                1.088          estimate D2E/DX2                !
 ! R21   R(15,17)                1.4225         estimate D2E/DX2                !
 ! R22   R(15,22)                1.0754         estimate D2E/DX2                !
 ! R23   R(16,17)                1.369          estimate D2E/DX2                !
 ! R24   R(17,23)                1.0741         estimate D2E/DX2                !
 ! A1    A(13,1,16)            105.4235         estimate D2E/DX2                !
 ! A2    A(8,6,10)             128.1244         estimate D2E/DX2                !
 ! A3    A(8,6,12)             118.7089         estimate D2E/DX2                !
 ! A4    A(10,6,12)            113.1668         estimate D2E/DX2                !
 ! A5    A(11,7,12)            115.1176         estimate D2E/DX2                !
 ! A6    A(11,7,20)            123.3854         estimate D2E/DX2                !
 ! A7    A(12,7,20)            121.4971         estimate D2E/DX2                !
 ! A8    A(6,8,14)             118.2479         estimate D2E/DX2                !
 ! A9    A(4,9,5)              127.2255         estimate D2E/DX2                !
 ! A10   A(4,9,16)             115.2313         estimate D2E/DX2                !
 ! A11   A(5,9,16)             117.5432         estimate D2E/DX2                !
 ! A12   A(6,10,11)            102.3406         estimate D2E/DX2                !
 ! A13   A(6,10,18)            112.1308         estimate D2E/DX2                !
 ! A14   A(6,10,19)            112.1371         estimate D2E/DX2                !
 ! A15   A(11,10,18)           110.1737         estimate D2E/DX2                !
 ! A16   A(11,10,19)           110.1912         estimate D2E/DX2                !
 ! A17   A(18,10,19)           109.6692         estimate D2E/DX2                !
 ! A18   A(2,11,7)             127.4737         estimate D2E/DX2                !
 ! A19   A(2,11,10)            127.2159         estimate D2E/DX2                !
 ! A20   A(7,11,10)            105.3104         estimate D2E/DX2                !
 ! A21   A(3,12,6)             128.3382         estimate D2E/DX2                !
 ! A22   A(3,12,7)             127.5971         estimate D2E/DX2                !
 ! A23   A(6,12,7)             104.0647         estimate D2E/DX2                !
 ! A24   A(1,13,14)            116.9387         estimate D2E/DX2                !
 ! A25   A(1,13,15)            109.9374         estimate D2E/DX2                !
 ! A26   A(14,13,15)           133.1239         estimate D2E/DX2                !
 ! A27   A(8,14,13)            119.3069         estimate D2E/DX2                !
 ! A28   A(8,14,21)            125.2738         estimate D2E/DX2                !
 ! A29   A(13,14,21)           115.4192         estimate D2E/DX2                !
 ! A30   A(13,15,17)           106.989          estimate D2E/DX2                !
 ! A31   A(13,15,22)           125.1474         estimate D2E/DX2                !
 ! A32   A(17,15,22)           127.8636         estimate D2E/DX2                !
 ! A33   A(1,16,9)             118.3439         estimate D2E/DX2                !
 ! A34   A(1,16,17)            111.1549         estimate D2E/DX2                !
 ! A35   A(9,16,17)            130.5012         estimate D2E/DX2                !
 ! A36   A(15,17,16)           106.4952         estimate D2E/DX2                !
 ! A37   A(15,17,23)           128.4457         estimate D2E/DX2                !
 ! A38   A(16,17,23)           125.0591         estimate D2E/DX2                !
 ! D1    D(16,1,13,14)         179.9933         estimate D2E/DX2                !
 ! D2    D(16,1,13,15)          -0.0097         estimate D2E/DX2                !
 ! D3    D(13,1,16,9)         -179.9945         estimate D2E/DX2                !
 ! D4    D(13,1,16,17)           0.0053         estimate D2E/DX2                !
 ! D5    D(10,6,8,14)           -0.0205         estimate D2E/DX2                !
 ! D6    D(12,6,8,14)         -179.9893         estimate D2E/DX2                !
 ! D7    D(8,6,10,11)         -179.9572         estimate D2E/DX2                !
 ! D8    D(8,6,10,18)          -61.9181         estimate D2E/DX2                !
 ! D9    D(8,6,10,19)           61.9802         estimate D2E/DX2                !
 ! D10   D(12,6,10,11)           0.013          estimate D2E/DX2                !
 ! D11   D(12,6,10,18)         118.0521         estimate D2E/DX2                !
 ! D12   D(12,6,10,19)        -118.0496         estimate D2E/DX2                !
 ! D13   D(8,6,12,3)             0.0151         estimate D2E/DX2                !
 ! D14   D(8,6,12,7)           179.9515         estimate D2E/DX2                !
 ! D15   D(10,6,12,3)         -179.9581         estimate D2E/DX2                !
 ! D16   D(10,6,12,7)           -0.0218         estimate D2E/DX2                !
 ! D17   D(12,7,11,2)          179.9496         estimate D2E/DX2                !
 ! D18   D(12,7,11,10)          -0.0155         estimate D2E/DX2                !
 ! D19   D(20,7,11,2)           -0.0249         estimate D2E/DX2                !
 ! D20   D(20,7,11,10)        -179.99           estimate D2E/DX2                !
 ! D21   D(11,7,12,3)          179.9603         estimate D2E/DX2                !
 ! D22   D(11,7,12,6)            0.0233         estimate D2E/DX2                !
 ! D23   D(20,7,12,3)           -0.0647         estimate D2E/DX2                !
 ! D24   D(20,7,12,6)          179.9983         estimate D2E/DX2                !
 ! D25   D(6,8,14,13)         -179.9771         estimate D2E/DX2                !
 ! D26   D(6,8,14,21)            0.005          estimate D2E/DX2                !
 ! D27   D(4,9,16,1)          -179.9978         estimate D2E/DX2                !
 ! D28   D(4,9,16,17)            0.0024         estimate D2E/DX2                !
 ! D29   D(5,9,16,1)             0.0021         estimate D2E/DX2                !
 ! D30   D(5,9,16,17)         -179.9977         estimate D2E/DX2                !
 ! D31   D(6,10,11,2)         -179.964          estimate D2E/DX2                !
 ! D32   D(6,10,11,7)            0.0013         estimate D2E/DX2                !
 ! D33   D(18,10,11,2)          60.6155         estimate D2E/DX2                !
 ! D34   D(18,10,11,7)        -119.4192         estimate D2E/DX2                !
 ! D35   D(19,10,11,2)         -60.528          estimate D2E/DX2                !
 ! D36   D(19,10,11,7)         119.4372         estimate D2E/DX2                !
 ! D37   D(1,13,14,8)         -179.9935         estimate D2E/DX2                !
 ! D38   D(1,13,14,21)           0.0226         estimate D2E/DX2                !
 ! D39   D(15,13,14,8)           0.0103         estimate D2E/DX2                !
 ! D40   D(15,13,14,21)       -179.9735         estimate D2E/DX2                !
 ! D41   D(1,13,15,17)           0.0103         estimate D2E/DX2                !
 ! D42   D(1,13,15,22)        -179.9881         estimate D2E/DX2                !
 ! D43   D(14,13,15,17)       -179.9934         estimate D2E/DX2                !
 ! D44   D(14,13,15,22)          0.0083         estimate D2E/DX2                !
 ! D45   D(13,15,17,16)         -0.0067         estimate D2E/DX2                !
 ! D46   D(13,15,17,23)        179.9927         estimate D2E/DX2                !
 ! D47   D(22,15,17,16)        179.9916         estimate D2E/DX2                !
 ! D48   D(22,15,17,23)         -0.009          estimate D2E/DX2                !
 ! D49   D(1,16,17,15)           0.0008         estimate D2E/DX2                !
 ! D50   D(1,16,17,23)        -179.9987         estimate D2E/DX2                !
 ! D51   D(9,16,17,15)        -179.9994         estimate D2E/DX2                !
 ! D52   D(9,16,17,23)           0.0011         estimate D2E/DX2                !
 --------------------------------------------------------------------------------
 Trust Radius=3.00D-01 FncErr=1.00D-07 GrdErr=1.00D-06
 Number of steps in this run=    124 maximum allowed number of steps=    138.
 GradGradGradGradGradGradGradGradGradGradGradGradGradGradGradGradGradGrad

                          Input orientation:                          
 ---------------------------------------------------------------------
 Center     Atomic      Atomic             Coordinates (Angstroms)
 Number     Number       Type             X           Y           Z
 ---------------------------------------------------------------------
      1          8           0       -2.289863   -0.628968   -0.000035
      2          8           0        5.130953   -2.004661   -0.000193
      3          8           0        3.381776    2.312647    0.000598
      4          8           0       -5.750589    0.124268    0.000145
      5          8           0       -4.630041   -1.892401    0.000456
      6          7           0        2.343900    0.184940   -0.000402
      7          7           0        4.569279    0.270315    0.000512
      8          7           0        1.062485    0.678945   -0.000036
      9          7           0       -4.687682   -0.610384    0.000205
     10          6           0        2.774831   -1.220888   -0.000407
     11          6           0        4.313669   -1.094335    0.000212
     12          6           0        3.421514    1.095876   -0.000162
     13          6           0       -1.268211    0.325004   -0.000169
     14          6           0        0.079097   -0.165998   -0.000047
     15          6           0       -1.809374    1.593709   -0.000469
     16          6           0       -3.470558    0.095656   -0.000037
     17          6           0       -3.223807    1.442262   -0.000284
     18          1           0        2.439341   -1.755393    0.895100
     19          1           0        2.439755   -1.755364   -0.896047
     20          1           0        5.503688    0.662650    0.000787
     21          1           0        0.181408   -1.249168   -0.000247
     22          1           0       -1.243471    2.508125   -0.000807
     23          1           0       -3.977451    2.207645   -0.000315
 ---------------------------------------------------------------------
                    Distance matrix (angstroms):
                    1          2          3          4          5
     1  O    0.000000
     2  O    7.547254   0.000000
     3  O    6.389099   4.658194   0.000000
     4  O    3.541749  11.087844   9.390905   0.000000
     5  O    2.659454   9.761640   9.048295   2.307072   0.000000
     6  N    4.704700   3.544294   2.367345   8.094716   7.276757
     7  N    6.917842   2.343287   2.362474  10.320901   9.450123
     8  N    3.598454   4.873825   2.836916   6.835616   6.246333
     9  N    2.397891   9.917137   8.582556   1.292085   1.283312
    10  C    5.099166   2.483065   3.585283   8.630888   7.435258
    11  C    6.619909   1.223375   3.532131  10.137765   8.979246
    12  C    5.966147   3.540552   1.217420   9.223421   8.588209
    13  C    1.397797   6.810040   5.056986   4.486871   4.027255
    14  C    2.413776   5.376052   4.129330   5.836908   5.015620
    15  C    2.274019   7.817698   5.240698   4.206237   4.484320
    16  C    1.385323   8.854226   7.202050   2.280211   2.301472
    17  C    2.272057   9.037881   6.662679   2.849866   3.619043
    18  H    4.943225   2.847536   4.270511   8.450386   7.127084
    19  H    4.943773   2.847323   4.270842   8.450912   7.127728
    20  H    7.899855   2.693229   2.687936  11.267147  10.450873
    21  H    2.547907   5.006872   4.788411   6.088917   4.854255
    22  H    3.307006   7.810155   4.629376   5.098714   5.552791
    23  H    3.300655  10.035265   7.359976   2.735777   4.151656
                    6          7          8          9         10
     6  N    0.000000
     7  N    2.227016   0.000000
     8  N    1.373341   3.530522   0.000000
     9  N    7.076418   9.298761   5.892944   0.000000
    10  C    1.470392   2.333180   2.557635   7.487444   0.000000
    11  C    2.348730   1.388383   3.703339   9.014351   1.544033
    12  C    1.411048   1.413830   2.395590   8.286760   2.405326
    13  C    3.614826   5.837746   2.357418   3.545100   4.328507
    14  C    2.291831   4.511331   1.296526   4.787448   2.894784
    15  C    4.385694   6.514491   3.014028   3.625284   5.379302
    16  C    5.815143   8.041734   4.570416   1.407083   6.382646
    17  C    5.707909   7.880714   4.353729   2.521168   6.563233
    18  H    2.139141   3.072526   2.936495   7.273674   1.095528
    19  H    2.139193   3.072794   2.936932   7.274243   1.095496
    20  H    3.195695   1.013433   4.441233  10.270571   3.315777
    21  H    2.594810   4.643516   2.119886   4.910813   2.593577
    22  H    4.273923   6.228632   2.943354   4.646255   5.481997
    23  H    6.637079   8.763552   5.266676   2.906151   7.572856
                   11         12         13         14         15
    11  C    0.000000
    12  C    2.364945   0.000000
    13  C    5.759506   4.752659   0.000000
    14  C    4.335137   3.572685   1.433988   0.000000
    15  C    6.687095   5.254524   1.379300   2.581258   0.000000
    16  C    7.874660   6.964273   2.214257   3.559286   2.236894
    17  C    7.952853   6.654343   2.252248   3.673646   1.422518
    18  H    2.179662   3.145774   4.344594   2.982988   5.483622
    19  H    2.179861   3.145796   4.345059   2.983556   5.483926
    20  H    2.122061   2.126766   6.780311   5.487517   7.372093
    21  H    4.135161   3.999690   2.139956   1.087991   3.470614
    22  H    6.622652   4.874067   2.183261   2.983307   1.075362
    23  H    8.924446   7.482026   3.299139   4.699975   2.253325
                   16         17         18         19         20
    16  C    0.000000
    17  C    1.369027   0.000000
    18  H    6.257360   6.564903   0.000000
    19  H    6.257868   6.565298   1.791147   0.000000
    20  H    8.992140   8.762247   4.004616   4.004846   0.000000
    21  H    3.891710   4.340424   2.481163   2.481698   5.655238
    22  H    3.283279   2.248954   5.704677   5.704818   6.994994
    23  H    2.171966   1.074146   7.594910   7.595282   9.606196
                   21         22         23
    21  H    0.000000
    22  H    4.018399   0.000000
    23  H    5.407926   2.750443   0.000000
 Stoichiometry    C8H6N4O5
 Framework group  C1[X(C8H6N4O5)]
 Deg. of freedom    63
 Full point group                 C1      NOp   1
 Largest Abelian subgroup         C1      NOp   1
 Largest concise Abelian subgroup C1      NOp   1
                         Standard orientation:                         
 ---------------------------------------------------------------------
 Center     Atomic      Atomic             Coordinates (Angstroms)
 Number     Number       Type             X           Y           Z
 ---------------------------------------------------------------------
      1          8           0        2.289863   -0.628968    0.000035
      2          8           0       -5.130953   -2.004661    0.000193
      3          8           0       -3.381776    2.312647   -0.000598
      4          8           0        5.750589    0.124268   -0.000145
      5          8           0        4.630041   -1.892401   -0.000456
      6          7           0       -2.343900    0.184940    0.000402
      7          7           0       -4.569279    0.270315   -0.000512
      8          7           0       -1.062485    0.678945    0.000036
      9          7           0        4.687682   -0.610384   -0.000205
     10          6           0       -2.774831   -1.220888    0.000407
     11          6           0       -4.313669   -1.094335   -0.000212
     12          6           0       -3.421514    1.095876    0.000162
     13          6           0        1.268211    0.325004    0.000169
     14          6           0       -0.079097   -0.165998    0.000047
     15          6           0        1.809374    1.593709    0.000469
     16          6           0        3.470558    0.095656    0.000037
     17          6           0        3.223807    1.442262    0.000284
     18          1           0       -2.439341   -1.755393   -0.895100
     19          1           0       -2.439755   -1.755364    0.896047
     20          1           0       -5.503688    0.662650   -0.000787
     21          1           0       -0.181408   -1.249168    0.000247
     22          1           0        1.243471    2.508125    0.000807
     23          1           0        3.977451    2.207645    0.000315
 ---------------------------------------------------------------------
 Rotational constants (GHZ):      1.4371219      0.1631166      0.1466271
 Standard basis: LANL2DZ (5D, 7F)
 There are   165 symmetry adapted cartesian basis functions of A   symmetry.
 There are   165 symmetry adapted basis functions of A   symmetry.
   165 basis functions,   449 primitive gaussians,   165 cartesian basis functions
    61 alpha electrons       61 beta electrons
       nuclear repulsion energy      1104.4540019971 Hartrees.
 NAtoms=   23 NActive=   23 NUniq=   23 SFac= 1.00D+00 NAtFMM=   60 NAOKFM=F Big=F
 Integral buffers will be    131072 words long.
 Raffenetti 2 integral format.
 Two-electron integral symmetry is turned on.
 One-electron integrals computed using PRISM.
 PrsmSu:  requested number of processors reduced to:   9 ShMem   1 Linda.
   1 Symmetry operations used in ECPInt.
 ECPInt:  NShTT=    4753 NPrTT=   39554 LenC2=    4209 LenP2D=   20125.
 LDataN:  DoStor=T MaxTD1= 2 Len=   12
 Number of processors reduced to  13 by ecpmxn.
 NBasis=   165 RedAO= T EigKep=  1.79D-03  NBF=   165
 NBsUse=   165 1.00D-06 EigRej= -1.00D+00 NBFU=   165
 ExpMin= 1.15D-01 ExpMax= 7.82D+03 ExpMxC= 2.73D+02 IAcc=3 IRadAn=         5 AccDes= 0.00D+00
 Harris functional with IExCor= 1009 and IRadAn=       5 diagonalized for initial guess.
 HarFok:  IExCor= 1009 AccDes= 0.00D+00 IRadAn=         5 IDoV= 1 UseB2=F ITyADJ=14
 ICtDFT=  3500011 ScaDFX=  1.000000  1.000000  1.000000  1.000000
 FoFCou: FMM=F IPFlag=           0 FMFlag=      100000 FMFlg1=           0
         NFxFlg=           0 DoJE=T BraDBF=F KetDBF=T FulRan=T
         wScrn=  0.000000 ICntrl=     500 IOpCl=  0 I1Cent=   200000004 NGrid=           0
         NMat0=    1 NMatS0=      1 NMatT0=    0 NMatD0=    1 NMtDS0=    0 NMtDT0=    0
 Petite list used in FoFCou.
 Requested convergence on RMS density matrix=1.00D-08 within 128 cycles.
 Requested convergence on MAX density matrix=1.00D-06.
 Requested convergence on             energy=1.00D-06.
 No special actions if energy rises.
 Integral accuracy reduced to 1.0D-05 until final iterations.
 Initial convergence to 1.0D-05 achieved.  Increase integral accuracy.
 SCF Done:  E(RM06) =  -902.773738247     A.U. after   17 cycles
            NFock= 17  Conv=0.90D-08     -V/T= 2.0046

 **********************************************************************

            Population analysis using the SCF density.

 **********************************************************************

 Orbital symmetries:
       Occupied  (A) (A) (A) (A) (A) (A) (A) (A) (A) (A) (A) (A)
                 (A) (A) (A) (A) (A) (A) (A) (A) (A) (A) (A) (A)
                 (A) (A) (A) (A) (A) (A) (A) (A) (A) (A) (A) (A)
                 (A) (A) (A) (A) (A) (A) (A) (A) (A) (A) (A) (A)
                 (A) (A) (A) (A) (A) (A) (A) (A) (A) (A) (A) (A)
                 (A)
       Virtual   (A) (A) (A) (A) (A) (A) (A) (A) (A) (A) (A) (A)
                 (A) (A) (A) (A) (A) (A) (A) (A) (A) (A) (A) (A)
                 (A) (A) (A) (A) (A) (A) (A) (A) (A) (A) (A) (A)
                 (A) (A) (A) (A) (A) (A) (A) (A) (A) (A) (A) (A)
                 (A) (A) (A) (A) (A) (A) (A) (A) (A) (A) (A) (A)
                 (A) (A) (A) (A) (A) (A) (A) (A) (A) (A) (A) (A)
                 (A) (A) (A) (A) (A) (A) (A) (A) (A) (A) (A) (A)
                 (A) (A) (A) (A) (A) (A) (A) (A) (A) (A) (A) (A)
                 (A) (A) (A) (A) (A) (A) (A) (A)
 The electronic state is 1-A.
 Alpha  occ. eigenvalues --  -19.34708 -19.28257 -19.27970 -19.26262 -19.25432
 Alpha  occ. eigenvalues --  -14.65557 -14.52135 -14.50800 -14.48877 -10.45185
 Alpha  occ. eigenvalues --  -10.43604 -10.39666 -10.37913 -10.35579 -10.35010
 Alpha  occ. eigenvalues --  -10.32116 -10.30843  -1.24913  -1.19744  -1.15539
 Alpha  occ. eigenvalues --   -1.13068  -1.09019  -1.08201  -1.02502  -0.92872
 Alpha  occ. eigenvalues --   -0.88863  -0.86947  -0.81878  -0.77843  -0.71198
 Alpha  occ. eigenvalues --   -0.68955  -0.68301  -0.63201  -0.61464  -0.59852
 Alpha  occ. eigenvalues --   -0.58088  -0.57386  -0.57331  -0.57130  -0.53643
 Alpha  occ. eigenvalues --   -0.52624  -0.51956  -0.50994  -0.49045  -0.48425
 Alpha  occ. eigenvalues --   -0.47599  -0.47503  -0.47360  -0.46917  -0.43977
 Alpha  occ. eigenvalues --   -0.42563  -0.35324  -0.35242  -0.34349  -0.34008
 Alpha  occ. eigenvalues --   -0.33812  -0.33078  -0.32962  -0.31735  -0.31498
 Alpha  occ. eigenvalues --   -0.27543
 Alpha virt. eigenvalues --   -0.13229  -0.07968  -0.04851   0.01011   0.02458
 Alpha virt. eigenvalues --    0.05412   0.06307   0.06468   0.08867   0.09957
 Alpha virt. eigenvalues --    0.10004   0.11834   0.13120   0.14428   0.14628
 Alpha virt. eigenvalues --    0.15296   0.16624   0.18444   0.19071   0.19256
 Alpha virt. eigenvalues --    0.20458   0.22111   0.23137   0.23556   0.25151
 Alpha virt. eigenvalues --    0.25980   0.26666   0.27598   0.29408   0.29555
 Alpha virt. eigenvalues --    0.30961   0.31218   0.32901   0.33287   0.33801
 Alpha virt. eigenvalues --    0.34043   0.34054   0.34697   0.35448   0.36616
 Alpha virt. eigenvalues --    0.38086   0.39327   0.39980   0.41804   0.43158
 Alpha virt. eigenvalues --    0.44420   0.44583   0.45953   0.48805   0.52153
 Alpha virt. eigenvalues --    0.52607   0.53546   0.54799   0.57376   0.58023
 Alpha virt. eigenvalues --    0.58140   0.59489   0.60283   0.60737   0.61997
 Alpha virt. eigenvalues --    0.63720   0.66288   0.66576   0.69110   0.69826
 Alpha virt. eigenvalues --    0.70977   0.76055   0.76296   0.78458   0.78564
 Alpha virt. eigenvalues --    0.79955   0.80564   0.81796   0.82265   0.82988
 Alpha virt. eigenvalues --    0.84343   0.86356   0.87143   0.88841   0.92221
 Alpha virt. eigenvalues --    0.92804   0.94761   0.99145   1.01983   1.02195
 Alpha virt. eigenvalues --    1.05049   1.06045   1.08458   1.12614   1.15365
 Alpha virt. eigenvalues --    1.16029   1.20511   1.31687   1.39409   1.43013
 Alpha virt. eigenvalues --    1.47986   1.59363   1.62940   1.77960   1.78517
 Alpha virt. eigenvalues --    1.84407   1.88070   1.97460   1.99775
          Condensed to atoms (all electrons):
               1          2          3          4          5          6
     1  O    7.853070   0.000000   0.000000   0.002166   0.002405  -0.000057
     2  O    0.000000   7.719417  -0.000011   0.000000   0.000000   0.000472
     3  O    0.000000  -0.000011   7.701877   0.000000   0.000000  -0.062724
     4  O    0.002166   0.000000   0.000000   8.189696  -0.100906   0.000000
     5  O    0.002405   0.000000   0.000000  -0.100906   8.157446   0.000000
     6  N   -0.000057   0.000472  -0.062724   0.000000   0.000000   7.165644
     7  N    0.000000  -0.078979  -0.060973   0.000000   0.000000  -0.126968
     8  N   -0.000282  -0.000109   0.000902   0.000000   0.000000   0.195481
     9  N   -0.028084   0.000000   0.000000   0.256770   0.268844   0.000000
    10  C    0.000027  -0.057431   0.001693   0.000000   0.000000   0.109998
    11  C    0.000000   0.662379  -0.003469   0.000000   0.000000  -0.011267
    12  C    0.000004  -0.005235   0.666248   0.000000   0.000000   0.208132
    13  C    0.306958   0.000000   0.000034   0.002322   0.002969   0.002918
    14  C   -0.027653  -0.000019  -0.001504   0.000024   0.000116  -0.107579
    15  C   -0.090559   0.000000   0.000015   0.000182  -0.000500  -0.000721
    16  C    0.345299   0.000000   0.000000  -0.125278  -0.107599  -0.000073
    17  C   -0.074886   0.000000   0.000000   0.033300   0.011642  -0.000015
    18  H    0.000000  -0.000647  -0.000017   0.000000   0.000000  -0.041214
    19  H    0.000000  -0.000648  -0.000018   0.000000   0.000000  -0.041192
    20  H    0.000000   0.001190  -0.002645   0.000000   0.000000   0.000828
    21  H    0.000097   0.000004  -0.000016   0.000000   0.000004  -0.031816
    22  H    0.002876   0.000000  -0.000009  -0.000004   0.000001   0.000072
    23  H    0.002385   0.000000   0.000000  -0.001363  -0.000016   0.000000
               7          8          9         10         11         12
     1  O    0.000000  -0.000282  -0.028084   0.000027   0.000000   0.000004
     2  O   -0.078979  -0.000109   0.000000  -0.057431   0.662379  -0.005235
     3  O   -0.060973   0.000902   0.000000   0.001693  -0.003469   0.666248
     4  O    0.000000   0.000000   0.256770   0.000000   0.000000   0.000000
     5  O    0.000000   0.000000   0.268844   0.000000   0.000000   0.000000
     6  N   -0.126968   0.195481   0.000000   0.109998  -0.011267   0.208132
     7  N    7.155346  -0.001999   0.000000  -0.073313   0.187453   0.196165
     8  N   -0.001999   6.324788   0.000002  -0.044958   0.001705  -0.057361
     9  N    0.000000   0.000002   6.400259   0.000000   0.000000   0.000000
    10  C   -0.073313  -0.044958   0.000000   5.770257   0.153052  -0.170172
    11  C    0.187453   0.001705   0.000000   0.153052   4.882439  -0.070524
    12  C    0.196165  -0.057361   0.000000  -0.170172  -0.070524   4.876877
    13  C    0.000002  -0.062697  -0.008184  -0.001762  -0.000149   0.000222
    14  C   -0.000217   0.584554   0.000172   0.003578  -0.001991  -0.015448
    15  C    0.000011   0.019807   0.000876   0.000647  -0.000015  -0.000512
    16  C    0.000000   0.000011  -0.032135   0.000012   0.000000   0.000001
    17  C    0.000000   0.001038   0.035643   0.000004   0.000000  -0.000003
    18  H   -0.002671   0.000864   0.000000   0.356971  -0.020260   0.002207
    19  H   -0.002663   0.000869   0.000000   0.356984  -0.020280   0.002191
    20  H    0.319295  -0.000012   0.000000   0.007804  -0.026427  -0.024651
    21  H    0.000050  -0.037473  -0.000009   0.029355  -0.000338  -0.001912
    22  H    0.000000   0.001408  -0.000013  -0.000004   0.000000   0.000029
    23  H    0.000000   0.000003  -0.000461   0.000000   0.000000   0.000000
              13         14         15         16         17         18
     1  O    0.306958  -0.027653  -0.090559   0.345299  -0.074886   0.000000
     2  O    0.000000  -0.000019   0.000000   0.000000   0.000000  -0.000647
     3  O    0.000034  -0.001504   0.000015   0.000000   0.000000  -0.000017
     4  O    0.002322   0.000024   0.000182  -0.125278   0.033300   0.000000
     5  O    0.002969   0.000116  -0.000500  -0.107599   0.011642   0.000000
     6  N    0.002918  -0.107579  -0.000721  -0.000073  -0.000015  -0.041214
     7  N    0.000002  -0.000217   0.000011   0.000000   0.000000  -0.002671
     8  N   -0.062697   0.584554   0.019807   0.000011   0.001038   0.000864
     9  N   -0.008184   0.000172   0.000876  -0.032135   0.035643   0.000000
    10  C   -0.001762   0.003578   0.000647   0.000012   0.000004   0.356971
    11  C   -0.000149  -0.001991  -0.000015   0.000000   0.000000  -0.020260
    12  C    0.000222  -0.015448  -0.000512   0.000001  -0.000003   0.002207
    13  C    4.916463   0.233267   0.477221  -0.161116  -0.086680   0.000010
    14  C    0.233267   5.420964  -0.047377  -0.004945  -0.003174   0.000788
    15  C    0.477221  -0.047377   5.243624  -0.088648   0.448412  -0.000007
    16  C   -0.161116  -0.004945  -0.088648   5.459673   0.408824   0.000001
    17  C   -0.086680  -0.003174   0.448412   0.408824   5.178674   0.000000
    18  H    0.000010   0.000788  -0.000007   0.000001   0.000000   0.442814
    19  H    0.000010   0.000786  -0.000007   0.000001   0.000000  -0.023413
    20  H    0.000000   0.000005   0.000000   0.000000   0.000000  -0.000074
    21  H   -0.027003   0.272351   0.007235  -0.000019   0.000148  -0.000686
    22  H   -0.010886  -0.002623   0.339333   0.003232  -0.021784   0.000000
    23  H    0.003196  -0.000118  -0.015062  -0.016792   0.338173   0.000000
              19         20         21         22         23
     1  O    0.000000   0.000000   0.000097   0.002876   0.002385
     2  O   -0.000648   0.001190   0.000004   0.000000   0.000000
     3  O   -0.000018  -0.002645  -0.000016  -0.000009   0.000000
     4  O    0.000000   0.000000   0.000000  -0.000004  -0.001363
     5  O    0.000000   0.000000   0.000004   0.000001  -0.000016
     6  N   -0.041192   0.000828  -0.031816   0.000072   0.000000
     7  N   -0.002663   0.319295   0.000050   0.000000   0.000000
     8  N    0.000869  -0.000012  -0.037473   0.001408   0.000003
     9  N    0.000000   0.000000  -0.000009  -0.000013  -0.000461
    10  C    0.356984   0.007804   0.029355  -0.000004   0.000000
    11  C   -0.020280  -0.026427  -0.000338   0.000000   0.000000
    12  C    0.002191  -0.024651  -0.001912   0.000029   0.000000
    13  C    0.000010   0.000000  -0.027003  -0.010886   0.003196
    14  C    0.000786   0.000005   0.272351  -0.002623  -0.000118
    15  C   -0.000007   0.000000   0.007235   0.339333  -0.015062
    16  C    0.000001   0.000000  -0.000019   0.003232  -0.016792
    17  C    0.000000   0.000000   0.000148  -0.021784   0.338173
    18  H   -0.023413  -0.000074  -0.000686   0.000000   0.000000
    19  H    0.442754  -0.000074  -0.000691   0.000000   0.000000
    20  H   -0.000074   0.329955   0.000000   0.000000   0.000000
    21  H   -0.000691   0.000000   0.548668   0.000008   0.000002
    22  H    0.000000   0.000000   0.000008   0.407039  -0.000308
    23  H    0.000000   0.000000   0.000002  -0.000308   0.407953
 Mulliken charges:
               1
     1  O   -0.293766
     2  O   -0.240382
     3  O   -0.239382
     4  O   -0.256911
     5  O   -0.234404
     6  N   -0.259918
     7  N   -0.510539
     8  N    0.073460
     9  N    0.106320
    10  C   -0.442742
    11  C    0.267693
    12  C    0.393743
    13  C    0.412886
    14  C   -0.303957
    15  C   -0.293954
    16  C    0.319551
    17  C   -0.269316
    18  H    0.285336
    19  H    0.285392
    20  H    0.394806
    21  H    0.242043
    22  H    0.281633
    23  H    0.282408
 Sum of Mulliken charges =   0.00000
 Mulliken charges with hydrogens summed into heavy atoms:
               1
     1  O   -0.293766
     2  O   -0.240382
     3  O   -0.239382
     4  O   -0.256911
     5  O   -0.234404
     6  N   -0.259918
     7  N   -0.115732
     8  N    0.073460
     9  N    0.106320
    10  C    0.127986
    11  C    0.267693
    12  C    0.393743
    13  C    0.412886
    14  C   -0.061914
    15  C   -0.012322
    16  C    0.319551
    17  C    0.013092
 Electronic spatial extent (au):  <R**2>=           6547.1135
 Charge=              0.0000 electrons
 Dipole moment (field-independent basis, Debye):
    X=             -3.9349    Y=              1.2349    Z=              0.0019  Tot=              4.1241
 Quadrupole moment (field-independent basis, Debye-Ang):
   XX=           -130.6043   YY=           -107.7721   ZZ=            -93.1030
   XY=             11.0050   XZ=              0.0039   YZ=              0.0033
 Traceless Quadrupole moment (field-independent basis, Debye-Ang):
   XX=            -20.1112   YY=              2.7210   ZZ=             17.3901
   XY=             11.0050   XZ=              0.0039   YZ=              0.0033
 Octapole moment (field-independent basis, Debye-Ang**2):
  XXX=           -195.9838  YYY=              3.4552  ZZZ=             -0.0040  XYY=             51.2575
  XXY=            114.1577  XXZ=              0.0014  XZZ=              0.1171  YZZ=             -7.6155
  YYZ=              0.0129  XYZ=             -0.0154
 Hexadecapole moment (field-independent basis, Debye-Ang**3):
 XXXX=          -8601.9300 YYYY=           -967.9803 ZZZZ=            -90.5236 XXXY=           -257.0925
 XXXZ=              0.2265 YYYX=             72.1800 YYYZ=              0.0223 ZZZX=             -0.0183
 ZZZY=             -0.0094 XXYY=          -1670.8010 XXZZ=          -1177.1456 YYZZ=           -162.0220
 XXYZ=              0.0201 YYXZ=              0.0059 ZZXY=            -12.2771
 N-N= 1.104454001997D+03 E-N=-4.320265249287D+03  KE= 8.986770665522D+02
 PrsmSu:  requested number of processors reduced to:   9 ShMem   1 Linda.
   1 Symmetry operations used in ECPInt.
 ECPInt:  NShTT=    4753 NPrTT=   39554 LenC2=    4209 LenP2D=   20125.
 LDataN:  DoStor=T MaxTD1= 3 Len=   28
 Number of processors reduced to  13 by ecpmxn.
 Calling FoFJK, ICntrl=      2127 FMM=F ISym2X=0 I1Cent= 0 IOpClX= 0 NMat=1 NMatS=1 NMatT=0.
 ***** Axes restored to original set *****
 -------------------------------------------------------------------
 Center     Atomic                   Forces (Hartrees/Bohr)
 Number     Number              X              Y              Z
 -------------------------------------------------------------------
      1        8           0.002731463    0.006675739    0.000016798
      2        8           0.005772925   -0.006702186    0.000035520
      3        8           0.001697877    0.008189469   -0.000058495
      4        8           0.012604132   -0.018815925    0.000003631
      5        8          -0.010509800    0.019547406   -0.000003116
      6        7          -0.009709810    0.003879400   -0.000019390
      7        7           0.004801521    0.003106806   -0.000032895
      8        7           0.014996412   -0.001169509   -0.000024208
      9        7          -0.011820332   -0.008408127    0.000000125
     10        6           0.003924846    0.004343866    0.000052839
     11        6          -0.014822671    0.007023317   -0.000096856
     12        6          -0.001982653   -0.011402859    0.000160162
     13        6          -0.006923541   -0.002881204   -0.000001526
     14        6          -0.002724463   -0.008025451   -0.000021713
     15        6          -0.003821501    0.003686873    0.000007531
     16        6           0.014058353   -0.004110483   -0.000002619
     17        6           0.001823881    0.007049471   -0.000006993
     18        1          -0.000132824   -0.000993598   -0.000158541
     19        1          -0.000114493   -0.000999105    0.000143557
     20        1          -0.000454696    0.000363503   -0.000000019
     21        1           0.000975562   -0.004530610    0.000002747
     22        1           0.001362892    0.001704870    0.000006512
     23        1          -0.001733080    0.002468336   -0.000003051
 -------------------------------------------------------------------
 Cartesian Forces:  Max     0.019547406 RMS     0.006236021

 GradGradGradGradGradGradGradGradGradGradGradGradGradGradGradGradGradGrad
 Berny optimization.
 FormGI is forming the generalized inverse of G from B-inverse, IUseBI=4.
 Internal  Forces:  Max     0.021067488 RMS     0.004304350
 Search for a local minimum.
 Step number   1 out of a maximum of  124
 All quantities printed in internal units (Hartrees-Bohrs-Radians)
 Mixed Optimization -- RFO/linear search
 Second derivative matrix not updated -- first step.
 ITU=  0
     Eigenvalues ---    0.00649   0.00897   0.01109   0.01468   0.01527
     Eigenvalues ---    0.01598   0.01598   0.01639   0.01647   0.01695
     Eigenvalues ---    0.01910   0.01921   0.02003   0.02060   0.02179
     Eigenvalues ---    0.02192   0.02272   0.03061   0.05301   0.07176
     Eigenvalues ---    0.08269   0.09390   0.16000   0.16000   0.16000
     Eigenvalues ---    0.16000   0.22000   0.22855   0.23368   0.24136
     Eigenvalues ---    0.24717   0.25000   0.25000   0.25000   0.25000
     Eigenvalues ---    0.25000   0.25000   0.25000   0.25000   0.27776
     Eigenvalues ---    0.34182   0.34185   0.34200   0.35046   0.36561
     Eigenvalues ---    0.36711   0.39699   0.40422   0.41564   0.41964
     Eigenvalues ---    0.42862   0.44467   0.45247   0.45402   0.46310
     Eigenvalues ---    0.48327   0.50234   0.50340   0.68167   0.69440
     Eigenvalues ---    0.72049   0.93903   0.96536
 RFO step:  Lambda=-4.60926867D-03 EMin= 6.49413897D-03
 Linear search not attempted -- first point.
 Iteration  1 RMS(Cart)=  0.01591550 RMS(Int)=  0.00016447
 Iteration  2 RMS(Cart)=  0.00027875 RMS(Int)=  0.00000664
 Iteration  3 RMS(Cart)=  0.00000005 RMS(Int)=  0.00000664
 Variable       Old X    -DE/DX   Delta X   Delta X   Delta X     New X
                                 (Linear)    (Quad)   (Total)
    R1        2.64145  -0.00774   0.00000  -0.01808  -0.01809   2.62337
    R2        2.61788  -0.00494   0.00000  -0.01094  -0.01095   2.60693
    R3        2.31184   0.00884   0.00000   0.00937   0.00937   2.32122
    R4        2.30059   0.00813   0.00000   0.00838   0.00838   2.30897
    R5        2.44169  -0.02107   0.00000  -0.03014  -0.03014   2.41155
    R6        2.42511  -0.02000   0.00000  -0.02758  -0.02758   2.39753
    R7        2.59524  -0.01273   0.00000  -0.02506  -0.02506   2.57017
    R8        2.77864  -0.00342   0.00000  -0.01013  -0.01014   2.76850
    R9        2.66649   0.00030   0.00000   0.00058   0.00058   2.66707
   R10        2.62366   0.00101   0.00000   0.00249   0.00250   2.62617
   R11        2.67175  -0.00121   0.00000  -0.00222  -0.00222   2.66954
   R12        1.91511  -0.00028   0.00000  -0.00061  -0.00061   1.91450
   R13        2.45008   0.00670   0.00000   0.00976   0.00976   2.45984
   R14        2.65900   0.01227   0.00000   0.02730   0.02730   2.68630
   R15        2.91780  -0.00538   0.00000  -0.01920  -0.01920   2.89860
   R16        2.07025   0.00040   0.00000   0.00114   0.00114   2.07139
   R17        2.07019   0.00040   0.00000   0.00117   0.00117   2.07136
   R18        2.70984   0.00446   0.00000   0.01091   0.01091   2.72075
   R19        2.60650   0.00621   0.00000   0.01243   0.01243   2.61893
   R20        2.05601   0.00460   0.00000   0.01296   0.01296   2.06897
   R21        2.68817  -0.00032   0.00000   0.00077   0.00078   2.68895
   R22        2.03214   0.00217   0.00000   0.00585   0.00585   2.03799
   R23        2.58709   0.00891   0.00000   0.01804   0.01804   2.60513
   R24        2.02984   0.00297   0.00000   0.00800   0.00800   2.03784
    A1        1.83999   0.00203   0.00000   0.00305   0.00303   1.84301
    A2        2.23619  -0.00202   0.00000  -0.00749  -0.00748   2.22871
    A3        2.07186   0.00205   0.00000   0.00853   0.00854   2.08040
    A4        1.97513  -0.00003   0.00000  -0.00105  -0.00106   1.97407
    A5        2.00918  -0.00333   0.00000  -0.01313  -0.01311   1.99607
    A6        2.15348   0.00216   0.00000   0.00954   0.00954   2.16302
    A7        2.12052   0.00118   0.00000   0.00359   0.00358   2.12410
    A8        2.06381   0.00214   0.00000   0.00840   0.00840   2.07221
    A9        2.22050  -0.01454   0.00000  -0.05712  -0.05712   2.16338
   A10        2.01117   0.00575   0.00000   0.02260   0.02260   2.03377
   A11        2.05152   0.00879   0.00000   0.03452   0.03452   2.08603
   A12        1.78618   0.00004   0.00000  -0.00004  -0.00006   1.78612
   A13        1.95705   0.00042   0.00000   0.00518   0.00519   1.96224
   A14        1.95716   0.00043   0.00000   0.00513   0.00513   1.96229
   A15        1.92289  -0.00011   0.00000  -0.00089  -0.00090   1.92200
   A16        1.92320  -0.00015   0.00000  -0.00139  -0.00139   1.92181
   A17        1.91409  -0.00059   0.00000  -0.00751  -0.00753   1.90656
   A18        2.22484  -0.00106   0.00000  -0.00434  -0.00435   2.22049
   A19        2.22034  -0.00148   0.00000  -0.00599  -0.00599   2.21434
   A20        1.83801   0.00254   0.00000   0.01033   0.01034   1.84835
   A21        2.23992   0.00187   0.00000   0.00693   0.00693   2.24685
   A22        2.22699  -0.00265   0.00000  -0.01082  -0.01082   2.21617
   A23        1.81627   0.00078   0.00000   0.00389   0.00389   1.82016
   A24        2.04097  -0.00496   0.00000  -0.01855  -0.01855   2.02242
   A25        1.91877   0.00179   0.00000   0.00518   0.00517   1.92394
   A26        2.32345   0.00317   0.00000   0.01337   0.01337   2.33682
   A27        2.08230  -0.00456   0.00000  -0.02030  -0.02030   2.06200
   A28        2.18644   0.00172   0.00000   0.00674   0.00674   2.19319
   A29        2.01445   0.00284   0.00000   0.01356   0.01356   2.02800
   A30        1.86731  -0.00158   0.00000  -0.00379  -0.00377   1.86354
   A31        2.18423   0.00052   0.00000   0.00028   0.00027   2.18451
   A32        2.23164   0.00105   0.00000   0.00351   0.00350   2.23514
   A33        2.06549  -0.00111   0.00000  -0.00471  -0.00471   2.06078
   A34        1.94002   0.00056   0.00000   0.00293   0.00292   1.94294
   A35        2.27768   0.00055   0.00000   0.00178   0.00179   2.27946
   A36        1.85869  -0.00280   0.00000  -0.00737  -0.00735   1.85134
   A37        2.24180   0.00090   0.00000   0.00063   0.00062   2.24242
   A38        2.18269   0.00190   0.00000   0.00674   0.00673   2.18943
    D1        3.14148   0.00000   0.00000   0.00020   0.00021  -3.14150
    D2       -0.00017   0.00001   0.00000   0.00033   0.00033   0.00016
    D3       -3.14150   0.00000   0.00000  -0.00017  -0.00017   3.14152
    D4        0.00009   0.00000   0.00000  -0.00018  -0.00018  -0.00008
    D5       -0.00036   0.00000   0.00000  -0.00013  -0.00013  -0.00048
    D6       -3.14141   0.00000   0.00000   0.00001   0.00001  -3.14140
    D7       -3.14085  -0.00002   0.00000  -0.00090  -0.00090   3.14144
    D8       -1.08067   0.00007   0.00000   0.00044   0.00043  -1.08024
    D9        1.08176  -0.00007   0.00000  -0.00162  -0.00162   1.08014
   D10        0.00023  -0.00002   0.00000  -0.00102  -0.00102  -0.00080
   D11        2.06040   0.00007   0.00000   0.00031   0.00031   2.06071
   D12       -2.06035  -0.00007   0.00000  -0.00175  -0.00174  -2.06210
   D13        0.00026  -0.00003   0.00000  -0.00135  -0.00136  -0.00110
   D14        3.14075   0.00002   0.00000   0.00107   0.00107  -3.14136
   D15       -3.14086  -0.00002   0.00000  -0.00123  -0.00125   3.14108
   D16       -0.00038   0.00003   0.00000   0.00119   0.00119   0.00081
   D17        3.14071   0.00002   0.00000   0.00137   0.00137  -3.14110
   D18       -0.00027   0.00001   0.00000   0.00029   0.00028   0.00001
   D19       -0.00043   0.00002   0.00000   0.00106   0.00105   0.00062
   D20       -3.14142   0.00000   0.00000  -0.00003  -0.00003  -3.14145
   D21        3.14090   0.00003   0.00000   0.00151   0.00150  -3.14079
   D22        0.00041  -0.00002   0.00000  -0.00090  -0.00090  -0.00049
   D23       -0.00113   0.00004   0.00000   0.00182   0.00180   0.00068
   D24        3.14156  -0.00002   0.00000  -0.00059  -0.00059   3.14097
   D25       -3.14119  -0.00002   0.00000  -0.00071  -0.00071   3.14128
   D26        0.00009  -0.00001   0.00000  -0.00017  -0.00017  -0.00008
   D27       -3.14155   0.00000   0.00000  -0.00005  -0.00005   3.14158
   D28        0.00004   0.00000   0.00000  -0.00005  -0.00005   0.00000
   D29        0.00004   0.00000   0.00000  -0.00001  -0.00001   0.00003
   D30       -3.14155   0.00000   0.00000   0.00000   0.00000  -3.14155
   D31       -3.14096  -0.00001   0.00000  -0.00065  -0.00065   3.14157
   D32        0.00002   0.00001   0.00000   0.00043   0.00043   0.00045
   D33        1.05794  -0.00047   0.00000  -0.00623  -0.00623   1.05171
   D34       -2.08426  -0.00045   0.00000  -0.00515  -0.00515  -2.08941
   D35       -1.05641   0.00044   0.00000   0.00463   0.00463  -1.05179
   D36        2.08457   0.00046   0.00000   0.00571   0.00571   2.09028
   D37       -3.14148   0.00001   0.00000   0.00027   0.00027  -3.14121
   D38        0.00039  -0.00001   0.00000  -0.00022  -0.00022   0.00017
   D39        0.00018   0.00000   0.00000   0.00010   0.00010   0.00028
   D40       -3.14113  -0.00001   0.00000  -0.00039  -0.00039  -3.14152
   D41        0.00018  -0.00001   0.00000  -0.00036  -0.00036  -0.00018
   D42       -3.14138  -0.00001   0.00000  -0.00022  -0.00023   3.14157
   D43       -3.14148  -0.00001   0.00000  -0.00020  -0.00020   3.14150
   D44        0.00014   0.00000   0.00000  -0.00007  -0.00007   0.00007
   D45       -0.00012   0.00001   0.00000   0.00024   0.00024   0.00012
   D46        3.14147   0.00000   0.00000   0.00019   0.00019  -3.14153
   D47        3.14145   0.00000   0.00000   0.00010   0.00010   3.14155
   D48       -0.00016   0.00000   0.00000   0.00005   0.00005  -0.00011
   D49        0.00001   0.00000   0.00000  -0.00004  -0.00004  -0.00002
   D50       -3.14157   0.00000   0.00000   0.00002   0.00001  -3.14155
   D51       -3.14158   0.00000   0.00000  -0.00004  -0.00004   3.14156
   D52        0.00002   0.00000   0.00000   0.00001   0.00001   0.00003
         Item               Value     Threshold  Converged?
 Maximum Force            0.021067     0.000450     NO 
 RMS     Force            0.004304     0.000300     NO 
 Maximum Displacement     0.094295     0.001800     NO 
 RMS     Displacement     0.015923     0.001200     NO 
 Predicted change in Energy=-2.333279D-03
 GradGradGradGradGradGradGradGradGradGradGradGradGradGradGradGradGradGrad

                          Input orientation:                          
 ---------------------------------------------------------------------
 Center     Atomic      Atomic             Coordinates (Angstroms)
 Number     Number       Type             X           Y           Z
 ---------------------------------------------------------------------
      1          8           0       -2.278911   -0.616323   -0.000260
      2          8           0        5.117116   -2.003836    0.000111
      3          8           0        3.383570    2.317793   -0.000138
      4          8           0       -5.751821    0.074369    0.000051
      5          8           0       -4.658632   -1.888186   -0.000172
      6          7           0        2.339327    0.184139   -0.000162
      7          7           0        4.567092    0.277141    0.000097
      8          7           0        1.065667    0.661214   -0.000284
      9          7           0       -4.680914   -0.619665   -0.000096
     10          6           0        2.771606   -1.215659    0.000190
     11          6           0        4.300045   -1.086666   -0.000067
     12          6           0        3.416241    1.096375    0.000448
     13          6           0       -1.263698    0.330521   -0.000352
     14          6           0        0.079355   -0.188247   -0.000624
     15          6           0       -1.800088    1.608388   -0.000057
     16          6           0       -3.456424    0.102398   -0.000118
     17          6           0       -3.215231    1.459710   -0.000011
     18          1           0        2.438907   -1.755862    0.894058
     19          1           0        2.438855   -1.756375   -0.893325
     20          1           0        5.500680    0.670599   -0.000131
     21          1           0        0.176232   -1.278802   -0.000901
     22          1           0       -1.227531    2.522309   -0.000040
     23          1           0       -3.970792    2.229146    0.000141
 ---------------------------------------------------------------------
                    Distance matrix (angstroms):
                    1          2          3          4          5
     1  O    0.000000
     2  O    7.525052   0.000000
     3  O    6.377517   4.656357   0.000000
     4  O    3.540926  11.065836   9.406823   0.000000
     5  O    2.698279   9.776433   9.075642   2.246483   0.000000
     6  N    4.687095   3.536007   2.375484   8.091892   7.298354
     7  N    6.904059   2.346356   2.359022  10.320904   9.476425
     8  N    3.580266   4.849405   2.849022   6.842699   6.266342
     9  N    2.402006   9.895318   8.582806   1.276137   1.268717
    10  C    5.085953   2.474397   3.586054   8.620497   7.460612
    11  C    6.595747   1.228334   3.525659  10.118696   8.994461
    12  C    5.947107   3.536139   1.221856   9.224849   8.608785
    13  C    1.388226   6.794410   5.054340   4.495426   4.055643
    14  C    2.396804   5.354942   4.147056   5.837086   5.033718
    15  C    2.275656   7.803581   5.231976   4.239033   4.516338
    16  C    1.379528   8.828466   7.189819   2.295567   2.325453
    17  C    2.277412   9.023533   6.654358   2.890235   3.645794
    18  H    4.935196   2.834332   4.276288   8.440202   7.154874
    19  H    4.935038   2.834175   4.276578   8.440196   7.154678
    20  H    7.885316   2.701800   2.682425  11.268286  10.476594
    21  H    2.542952   4.993797   4.818975   6.080533   4.873117
    22  H    3.310046   7.793621   4.615634   5.144084   5.587926
    23  H    3.310462  10.025378   7.354897   2.795554   4.174392
                    6          7          8          9         10
     6  N    0.000000
     7  N    2.229705   0.000000
     8  N    1.360077   3.522426   0.000000
     9  N    7.066108   9.291387   5.887601   0.000000
    10  C    1.465026   2.334999   2.536312   7.476313   0.000000
    11  C    2.336528   1.389707   3.676450   8.993093   1.533873
    12  C    1.411353   1.412657   2.390515   8.276999   2.400220
    13  C    3.605997   5.831034   2.352722   3.546860   4.321383
    14  C    2.290446   4.511803   1.301689   4.779779   2.881630
    15  C    4.377584   6.504860   3.018227   3.641892   5.373605
    16  C    5.796328   8.025419   4.556488   1.421531   6.365975
    17  C    5.699139   7.871658   4.354731   2.544018   6.557424
    18  H    2.138492   3.075945   2.920255   7.265143   1.096132
    19  H    2.138514   3.076164   2.920258   7.265059   1.096114
    20  H    3.198562   1.013112   4.435023  10.263023   3.317501
    21  H    2.611356   4.658391   2.134188   4.901666   2.596142
    22  H    4.264916   6.214373   2.953376   4.668817   5.474075
    23  H    6.633224   8.758184   5.274877   2.935983   7.571434
                   11         12         13         14         15
    11  C    0.000000
    12  C    2.355160   0.000000
    13  C    5.741398   4.742189   0.000000
    14  C    4.315250   3.575620   1.439761   0.000000
    15  C    6.668954   5.241398   1.385878   2.600039   0.000000
    16  C    7.847082   6.944171   2.204561   3.547705   2.238628
    17  C    7.934948   6.641417   2.254672   3.683756   1.422931
    18  H    2.170510   3.144674   4.343068   2.970750   5.485134
    19  H    2.170357   3.145202   4.342976   2.970384   5.485271
    20  H    2.128264   2.127480   6.772921   5.488933   7.360752
    21  H    4.128286   4.017353   2.159472   1.094850   3.498816
    22  H    6.601424   4.857768   2.192086   3.009163   1.078458
    23  H    8.910744   7.473381   3.306529   4.716723   2.257719
                   16         17         18         19         20
    16  C    0.000000
    17  C    1.378575   0.000000
    18  H    6.245607   6.565708   0.000000
    19  H    6.245572   6.565813   1.787382   0.000000
    20  H    8.975109   8.751560   4.007710   4.007839   0.000000
    21  H    3.886375   4.359067   2.479563   2.478701   5.670089
    22  H    3.289974   2.253900   5.704815   5.705040   6.978371
    23  H    2.188065   1.078381   7.600238   7.600410   9.598847
                   21         22         23
    21  H    0.000000
    22  H    4.052036   0.000000
    23  H    5.431714   2.758881   0.000000
 Stoichiometry    C8H6N4O5
 Framework group  C1[X(C8H6N4O5)]
 Deg. of freedom    63
 Full point group                 C1      NOp   1
 Largest Abelian subgroup         C1      NOp   1
 Largest concise Abelian subgroup C1      NOp   1
                         Standard orientation:                         
 ---------------------------------------------------------------------
 Center     Atomic      Atomic             Coordinates (Angstroms)
 Number     Number       Type             X           Y           Z
 ---------------------------------------------------------------------
      1          8           0        2.279183   -0.610401    0.000177
      2          8           0       -5.113908   -2.013470   -0.000194
      3          8           0       -3.389458    2.311797    0.000055
      4          8           0        5.750632    0.087596   -0.000134
      5          8           0        4.661575   -1.877255    0.000089
      6          7           0       -2.340728    0.180344    0.000079
      7          7           0       -4.568684    0.268660   -0.000180
      8          7           0       -1.068075    0.660098    0.000201
      9          7           0        4.681188   -0.608690    0.000013
     10          6           0       -2.770061   -1.220360   -0.000273
     11          6           0       -4.298768   -1.094583   -0.000016
     12          6           0       -3.419559    1.090312   -0.000530
     13          6           0        1.261981    0.334305    0.000269
     14          6           0       -0.079978   -0.187286    0.000541
     15          6           0        1.795682    1.613298   -0.000026
     16          6           0        3.455182    0.110796    0.000036
     17          6           0        3.211134    1.467597   -0.000072
     18          1           0       -2.436227   -1.759862   -0.894141
     19          1           0       -2.436174   -1.760376    0.893242
     20          1           0       -5.503098    0.660152    0.000048
     21          1           0       -0.174561   -1.278044    0.000818
     22          1           0        1.221203    2.526012   -0.000043
     23          1           0        3.965075    2.238621   -0.000224
 ---------------------------------------------------------------------
 Rotational constants (GHZ):      1.4343092      0.1633419      0.1467791
 Standard basis: LANL2DZ (5D, 7F)
 There are   165 symmetry adapted cartesian basis functions of A   symmetry.
 There are   165 symmetry adapted basis functions of A   symmetry.
   165 basis functions,   449 primitive gaussians,   165 cartesian basis functions
    61 alpha electrons       61 beta electrons
       nuclear repulsion energy      1104.9599585082 Hartrees.
 NAtoms=   23 NActive=   23 NUniq=   23 SFac= 1.00D+00 NAtFMM=   60 NAOKFM=F Big=F
 Integral buffers will be    131072 words long.
 Raffenetti 2 integral format.
 Two-electron integral symmetry is turned on.
 One-electron integrals computed using PRISM.
 PrsmSu:  requested number of processors reduced to:   9 ShMem   1 Linda.
   1 Symmetry operations used in ECPInt.
 ECPInt:  NShTT=    4753 NPrTT=   39554 LenC2=    4212 LenP2D=   20122.
 LDataN:  DoStor=T MaxTD1= 2 Len=   12
 Number of processors reduced to  13 by ecpmxn.
 NBasis=   165 RedAO= T EigKep=  1.81D-03  NBF=   165
 NBsUse=   165 1.00D-06 EigRej= -1.00D+00 NBFU=   165
 Initial guess from the checkpoint file:  "/tmp/scratch/64172.prometeo/Gau-28077.chk"
 B after Tr=     0.000000    0.000000    0.000000
         Rot=    1.000000   -0.000002    0.000009   -0.000748 Ang=  -0.09 deg.
 ExpMin= 1.15D-01 ExpMax= 7.82D+03 ExpMxC= 2.73D+02 IAcc=2 IRadAn=         4 AccDes= 0.00D+00
 Harris functional with IExCor= 1009 and IRadAn=       4 diagonalized for initial guess.
 HarFok:  IExCor= 1009 AccDes= 0.00D+00 IRadAn=         4 IDoV= 1 UseB2=F ITyADJ=14
 ICtDFT=  3500011 ScaDFX=  1.000000  1.000000  1.000000  1.000000
 FoFCou: FMM=F IPFlag=           0 FMFlag=      100000 FMFlg1=           0
         NFxFlg=           0 DoJE=T BraDBF=F KetDBF=T FulRan=T
         wScrn=  0.000000 ICntrl=     500 IOpCl=  0 I1Cent=   200000004 NGrid=           0
         NMat0=    1 NMatS0=      1 NMatT0=    0 NMatD0=    1 NMtDS0=    0 NMtDT0=    0
 Petite list used in FoFCou.
 Requested convergence on RMS density matrix=1.00D-08 within 128 cycles.
 Requested convergence on MAX density matrix=1.00D-06.
 Requested convergence on             energy=1.00D-06.
 No special actions if energy rises.
 Integral accuracy reduced to 1.0D-05 until final iterations.
 Initial convergence to 1.0D-05 achieved.  Increase integral accuracy.
 SCF Done:  E(RM06) =  -902.776090816     A.U. after   15 cycles
            NFock= 15  Conv=0.32D-08     -V/T= 2.0045
 PrsmSu:  requested number of processors reduced to:   9 ShMem   1 Linda.
   1 Symmetry operations used in ECPInt.
 ECPInt:  NShTT=    4753 NPrTT=   39554 LenC2=    4212 LenP2D=   20122.
 LDataN:  DoStor=T MaxTD1= 3 Len=   28
 Number of processors reduced to  13 by ecpmxn.
 Calling FoFJK, ICntrl=      2127 FMM=F ISym2X=0 I1Cent= 0 IOpClX= 0 NMat=1 NMatS=1 NMatT=0.
 ***** Axes restored to original set *****
 -------------------------------------------------------------------
 Center     Atomic                   Forces (Hartrees/Bohr)
 Number     Number              X              Y              Z
 -------------------------------------------------------------------
      1        8          -0.001590651    0.003621179   -0.000017886
      2        8           0.001594954   -0.001747801   -0.000029576
      3        8          -0.000271227    0.001565573    0.000071460
      4        8           0.004489542    0.001068745   -0.000002741
      5        8           0.003303369    0.003168165   -0.000002317
      6        7          -0.003668828    0.002819358    0.000052844
      7        7           0.000745978    0.000271445    0.000029624
      8        7           0.003603782   -0.002065017    0.000009622
      9        7          -0.008920362   -0.004992308    0.000007975
     10        6           0.002959433    0.001738672   -0.000027816
     11        6          -0.003612763    0.000974669    0.000079401
     12        6           0.000468900   -0.002761875   -0.000192529
     13        6           0.000022072   -0.000648683    0.000005855
     14        6          -0.000515069   -0.001465588    0.000018839
     15        6          -0.000415421   -0.000011294   -0.000017932
     16        6           0.003342484   -0.000314364    0.000001187
     17        6          -0.000953196   -0.000575998    0.000010287
     18        1          -0.000219631   -0.000368648   -0.000094026
     19        1          -0.000236664   -0.000366291    0.000087267
     20        1          -0.000354660    0.000063568    0.000008370
     21        1           0.000007758    0.000475822    0.000001821
     22        1           0.000124240   -0.000318414    0.000000986
     23        1           0.000095960   -0.000130915   -0.000000715
 -------------------------------------------------------------------
 Cartesian Forces:  Max     0.008920362 RMS     0.001940775

 GradGradGradGradGradGradGradGradGradGradGradGradGradGradGradGradGradGrad
 Berny optimization.
 Using GEDIIS/GDIIS optimizer.
 FormGI is forming the generalized inverse of G from B-inverse, IUseBI=4.
 Internal  Forces:  Max     0.005367566 RMS     0.000990724
 Search for a local minimum.
 Step number   2 out of a maximum of  124
 All quantities printed in internal units (Hartrees-Bohrs-Radians)
 Mixed Optimization -- En-DIIS/RFO-DIIS
 Update second derivatives using D2CorX and points    1    2
 DE= -2.35D-03 DEPred=-2.33D-03 R= 1.01D+00
 TightC=F SS=  1.41D+00  RLast= 1.12D-01 DXNew= 5.0454D-01 3.3535D-01
 Trust test= 1.01D+00 RLast= 1.12D-01 DXMaxT set to 3.35D-01
 ITU=  1  0
 Use linear search instead of GDIIS.
     Eigenvalues ---    0.00648   0.00897   0.01113   0.01467   0.01528
     Eigenvalues ---    0.01598   0.01598   0.01639   0.01647   0.01695
     Eigenvalues ---    0.01913   0.01920   0.02006   0.02061   0.02178
     Eigenvalues ---    0.02194   0.02273   0.03061   0.05287   0.07126
     Eigenvalues ---    0.08286   0.09400   0.15972   0.16000   0.16000
     Eigenvalues ---    0.16004   0.21586   0.22819   0.23288   0.23774
     Eigenvalues ---    0.24512   0.24746   0.25000   0.25000   0.25000
     Eigenvalues ---    0.25000   0.25000   0.25000   0.27396   0.30868
     Eigenvalues ---    0.34169   0.34183   0.34246   0.35346   0.36597
     Eigenvalues ---    0.36823   0.38888   0.40316   0.41514   0.41981
     Eigenvalues ---    0.42944   0.43099   0.44987   0.45407   0.46309
     Eigenvalues ---    0.48294   0.49107   0.51025   0.65870   0.68296
     Eigenvalues ---    0.71164   0.93256   0.96235
 RFO step:  Lambda=-3.34305413D-04 EMin= 6.47610091D-03
 Quartic linear search produced a step of  0.00600.
 Iteration  1 RMS(Cart)=  0.00708632 RMS(Int)=  0.00001951
 Iteration  2 RMS(Cart)=  0.00004624 RMS(Int)=  0.00000166
 Iteration  3 RMS(Cart)=  0.00000000 RMS(Int)=  0.00000166
 Variable       Old X    -DE/DX   Delta X   Delta X   Delta X     New X
                                 (Linear)    (Quad)   (Total)
    R1        2.62337  -0.00144  -0.00011  -0.00450  -0.00461   2.61876
    R2        2.60693  -0.00260  -0.00007  -0.00650  -0.00656   2.60037
    R3        2.32122   0.00237   0.00006   0.00316   0.00322   2.32444
    R4        2.30897   0.00157   0.00005   0.00220   0.00225   2.31122
    R5        2.41155  -0.00319  -0.00018  -0.00664  -0.00682   2.40473
    R6        2.39753  -0.00311  -0.00017  -0.00619  -0.00636   2.39117
    R7        2.57017  -0.00320  -0.00015  -0.00807  -0.00822   2.56196
    R8        2.76850  -0.00009  -0.00006  -0.00120  -0.00126   2.76723
    R9        2.66707  -0.00037   0.00000  -0.00079  -0.00079   2.66628
   R10        2.62617   0.00015   0.00002   0.00060   0.00061   2.62678
   R11        2.66954  -0.00004  -0.00001   0.00002   0.00000   2.66954
   R12        1.91450  -0.00030   0.00000  -0.00071  -0.00071   1.91379
   R13        2.45984   0.00085   0.00006   0.00190   0.00196   2.46180
   R14        2.68630   0.00136   0.00016   0.00489   0.00506   2.69136
   R15        2.89860  -0.00180  -0.00012  -0.00797  -0.00808   2.89052
   R16        2.07139   0.00017   0.00001   0.00058   0.00059   2.07198
   R17        2.07136   0.00018   0.00001   0.00061   0.00062   2.07197
   R18        2.72075   0.00078   0.00007   0.00267   0.00274   2.72349
   R19        2.61893   0.00010   0.00007   0.00126   0.00134   2.62027
   R20        2.06897  -0.00047   0.00008  -0.00049  -0.00041   2.06856
   R21        2.68895   0.00054   0.00000   0.00169   0.00169   2.69064
   R22        2.03799  -0.00020   0.00004  -0.00017  -0.00013   2.03786
   R23        2.60513  -0.00083   0.00011  -0.00048  -0.00038   2.60475
   R24        2.03784  -0.00016   0.00005   0.00010   0.00014   2.03799
    A1        1.84301   0.00157   0.00002   0.00531   0.00534   1.84835
    A2        2.22871   0.00006  -0.00004   0.00001  -0.00004   2.22868
    A3        2.08040   0.00078   0.00005   0.00401   0.00405   2.08446
    A4        1.97407  -0.00084  -0.00001  -0.00402  -0.00402   1.97005
    A5        1.99607  -0.00036  -0.00008  -0.00219  -0.00227   1.99379
    A6        2.16302   0.00037   0.00006   0.00248   0.00253   2.16555
    A7        2.12410  -0.00001   0.00002  -0.00028  -0.00026   2.12384
    A8        2.07221   0.00221   0.00005   0.00942   0.00948   2.08169
    A9        2.16338   0.00537  -0.00034   0.01776   0.01741   2.18080
   A10        2.03377  -0.00268   0.00014  -0.00927  -0.00914   2.02463
   A11        2.08603  -0.00268   0.00021  -0.00848  -0.00828   2.07776
   A12        1.78612   0.00088   0.00000   0.00410   0.00410   1.79022
   A13        1.96224  -0.00014   0.00003   0.00067   0.00070   1.96294
   A14        1.96229  -0.00015   0.00003   0.00070   0.00073   1.96302
   A15        1.92200  -0.00020  -0.00001  -0.00007  -0.00008   1.92192
   A16        1.92181  -0.00016  -0.00001   0.00033   0.00032   1.92213
   A17        1.90656  -0.00018  -0.00005  -0.00512  -0.00516   1.90140
   A18        2.22049   0.00001  -0.00003  -0.00008  -0.00010   2.22038
   A19        2.21434   0.00008  -0.00004   0.00008   0.00004   2.21439
   A20        1.84835  -0.00009   0.00006   0.00000   0.00006   1.84842
   A21        2.24685  -0.00047   0.00004  -0.00153  -0.00149   2.24537
   A22        2.21617   0.00006  -0.00006  -0.00058  -0.00065   2.21552
   A23        1.82016   0.00041   0.00002   0.00211   0.00213   1.82229
   A24        2.02242   0.00015  -0.00011  -0.00074  -0.00085   2.02157
   A25        1.92394  -0.00109   0.00003  -0.00378  -0.00375   1.92020
   A26        2.33682   0.00093   0.00008   0.00452   0.00460   2.34142
   A27        2.06200  -0.00058  -0.00012  -0.00401  -0.00413   2.05787
   A28        2.19319   0.00024   0.00004   0.00145   0.00149   2.19468
   A29        2.02800   0.00034   0.00008   0.00255   0.00263   2.03064
   A30        1.86354  -0.00001  -0.00002   0.00093   0.00090   1.86444
   A31        2.18451  -0.00028   0.00000  -0.00232  -0.00232   2.18219
   A32        2.23514   0.00028   0.00002   0.00140   0.00142   2.23656
   A33        2.06078  -0.00008  -0.00003  -0.00034  -0.00036   2.06042
   A34        1.94294  -0.00005   0.00002  -0.00062  -0.00060   1.94234
   A35        2.27946   0.00013   0.00001   0.00096   0.00097   2.28043
   A36        1.85134  -0.00042  -0.00004  -0.00184  -0.00189   1.84945
   A37        2.24242   0.00024   0.00000   0.00087   0.00087   2.24329
   A38        2.18943   0.00019   0.00004   0.00097   0.00101   2.19044
    D1       -3.14150   0.00000   0.00000  -0.00020  -0.00020   3.14148
    D2        0.00016  -0.00001   0.00000  -0.00037  -0.00037  -0.00020
    D3        3.14152   0.00000   0.00000   0.00018   0.00018  -3.14149
    D4       -0.00008   0.00000   0.00000   0.00020   0.00020   0.00011
    D5       -0.00048   0.00001   0.00000   0.00058   0.00058   0.00010
    D6       -3.14140   0.00000   0.00000  -0.00010  -0.00010  -3.14150
    D7        3.14144   0.00002  -0.00001   0.00111   0.00110  -3.14064
    D8       -1.08024   0.00023   0.00000   0.00373   0.00374  -1.07650
    D9        1.08014  -0.00023  -0.00001  -0.00201  -0.00202   1.07811
   D10       -0.00080   0.00003  -0.00001   0.00176   0.00175   0.00096
   D11        2.06071   0.00024   0.00000   0.00439   0.00439   2.06510
   D12       -2.06210  -0.00023  -0.00001  -0.00136  -0.00137  -2.06347
   D13       -0.00110   0.00003  -0.00001   0.00221   0.00220   0.00110
   D14       -3.14136  -0.00003   0.00001  -0.00138  -0.00137   3.14045
   D15        3.14108   0.00003  -0.00001   0.00162   0.00161  -3.14050
   D16        0.00081  -0.00003   0.00001  -0.00197  -0.00196  -0.00115
   D17       -3.14110  -0.00002   0.00001  -0.00141  -0.00140   3.14068
   D18        0.00001  -0.00001   0.00000  -0.00034  -0.00033  -0.00032
   D19        0.00062  -0.00002   0.00001  -0.00127  -0.00127  -0.00064
   D20       -3.14145  -0.00001   0.00000  -0.00020  -0.00020   3.14153
   D21       -3.14079  -0.00003   0.00001  -0.00211  -0.00210   3.14030
   D22       -0.00049   0.00002  -0.00001   0.00139   0.00139   0.00090
   D23        0.00068  -0.00004   0.00001  -0.00224  -0.00223  -0.00155
   D24        3.14097   0.00002   0.00000   0.00126   0.00126  -3.14095
   D25        3.14128   0.00002   0.00000   0.00079   0.00079  -3.14112
   D26       -0.00008   0.00001   0.00000   0.00023   0.00023   0.00015
   D27        3.14158   0.00000   0.00000   0.00017   0.00017  -3.14144
   D28        0.00000   0.00000   0.00000   0.00015   0.00015   0.00014
   D29        0.00003   0.00000   0.00000  -0.00013  -0.00013  -0.00010
   D30       -3.14155   0.00000   0.00000  -0.00015  -0.00015   3.14148
   D31        3.14157   0.00000   0.00000   0.00024   0.00024  -3.14138
   D32        0.00045  -0.00001   0.00000  -0.00082  -0.00082  -0.00037
   D33        1.05171  -0.00022  -0.00004  -0.00275  -0.00278   1.04893
   D34       -2.08941  -0.00024  -0.00003  -0.00381  -0.00384  -2.09325
   D35       -1.05179   0.00024   0.00003   0.00345   0.00348  -1.04831
   D36        2.09028   0.00022   0.00003   0.00238   0.00242   2.09270
   D37       -3.14121  -0.00001   0.00000  -0.00048  -0.00048   3.14149
   D38        0.00017   0.00000   0.00000   0.00002   0.00002   0.00019
   D39        0.00028  -0.00001   0.00000  -0.00026  -0.00026   0.00002
   D40       -3.14152   0.00001   0.00000   0.00024   0.00024  -3.14128
   D41       -0.00018   0.00001   0.00000   0.00040   0.00040   0.00022
   D42        3.14157   0.00000   0.00000   0.00012   0.00012  -3.14149
   D43        3.14150   0.00000   0.00000   0.00019   0.00019  -3.14149
   D44        0.00007   0.00000   0.00000  -0.00009  -0.00009  -0.00002
   D45        0.00012  -0.00001   0.00000  -0.00027  -0.00026  -0.00014
   D46       -3.14153   0.00000   0.00000  -0.00017  -0.00017   3.14148
   D47        3.14155   0.00000   0.00000   0.00003   0.00003   3.14157
   D48       -0.00011   0.00000   0.00000   0.00013   0.00013   0.00002
   D49       -0.00002   0.00000   0.00000   0.00004   0.00004   0.00002
   D50       -3.14155   0.00000   0.00000  -0.00005  -0.00005   3.14158
   D51        3.14156   0.00000   0.00000   0.00006   0.00006  -3.14156
   D52        0.00003   0.00000   0.00000  -0.00003  -0.00003   0.00000
         Item               Value     Threshold  Converged?
 Maximum Force            0.005368     0.000450     NO 
 RMS     Force            0.000991     0.000300     NO 
 Maximum Displacement     0.026541     0.001800     NO 
 RMS     Displacement     0.007078     0.001200     NO 
 Predicted change in Energy=-1.674678D-04
 GradGradGradGradGradGradGradGradGradGradGradGradGradGradGradGradGradGrad

                          Input orientation:                          
 ---------------------------------------------------------------------
 Center     Atomic      Atomic             Coordinates (Angstroms)
 Number     Number       Type             X           Y           Z
 ---------------------------------------------------------------------
      1          8           0       -2.284567   -0.611498    0.000153
      2          8           0        5.123715   -1.998907    0.000289
      3          8           0        3.373280    2.317961    0.000549
      4          8           0       -5.747084    0.084609    0.000044
      5          8           0       -4.653101   -1.882244    0.000532
      6          7           0        2.337361    0.180439   -0.000457
      7          7           0        4.566268    0.282055    0.000545
      8          7           0        1.064505    0.647169   -0.000085
      9          7           0       -4.685652   -0.617309    0.000324
     10          6           0        2.779090   -1.215705   -0.000722
     11          6           0        4.302900   -1.082798    0.000326
     12          6           0        3.411324    1.095506   -0.000639
     13          6           0       -1.265661    0.327775   -0.000022
     14          6           0        0.075252   -0.200462    0.000185
     15          6           0       -1.799684    1.607400   -0.000493
     16          6           0       -3.458776    0.105974    0.000053
     17          6           0       -3.216151    1.462829   -0.000322
     18          1           0        2.447424   -1.760306    0.891240
     19          1           0        2.448386   -1.759749   -0.893378
     20          1           0        5.497421    0.680283    0.001244
     21          1           0        0.167715   -1.291182    0.000273
     22          1           0       -1.223161    2.518741   -0.000799
     23          1           0       -3.970153    2.233900   -0.000481
 ---------------------------------------------------------------------
                    Distance matrix (angstroms):
                    1          2          3          4          5
     1  O    0.000000
     2  O    7.537079   0.000000
     3  O    6.371261   4.658259   0.000000
     4  O    3.531797  11.068664   9.389830   0.000000
     5  O    2.687889   9.777512   9.058947   2.250625   0.000000
[...]
    11  C    2.336993   1.390268   3.670345   8.999641   1.528640
    12  C    1.411247   1.412257   2.389549   8.278667   2.396315
    13  C    3.604503   5.830729   2.351765   3.550694   4.327334
    14  C    2.292400   4.515069   1.301937   4.781412   2.886636
    15  C    4.374937   6.502052   3.020980   3.646129   5.377697
    16  C    5.794470   8.024874   4.554806   1.427130   6.373424
    17  C    5.698312   7.870885   4.357775   2.548359   6.564551
    18  H    2.139071   3.075038   2.914309   7.276550   1.096599
    19  H    2.139063   3.075367   2.914190   7.276184   1.096596
    20  H    3.199080   1.012742   4.432062  10.266130   3.313527
    21  H    2.619634   4.668391   2.134227   4.901727   2.609867
    22  H    4.258297   6.206532   2.955599   4.673643   5.472726
    23  H    6.631479   8.755847   5.278312   2.940690   7.577474
                   11         12         13         14         15
    11  C    0.000000
    12  C    2.353979   0.000000
    13  C    5.742176   4.739712   0.000000
    14  C    4.316571   3.578480   1.440800   0.000000
    15  C    6.667843   5.236962   1.386356   2.603849   0.000000
    16  C    7.848816   6.940631   2.203739   3.546448   2.237041
    17  C    7.936416   6.638509   2.256560   3.687229   1.423968
    18  H    2.167547   3.143578   4.348765   2.973180   5.490013
    19  H    2.167433   3.143855   4.348486   2.972803   5.489887
    20  H    2.130159   2.126031   6.770935   5.491398   7.355488
    21  H    4.136912   4.025547   2.161347   1.094200   3.501993
    22  H    6.595239   4.849123   2.190776   3.012046   1.078219
    23  H    8.910978   7.469187   3.308041   4.720232   2.258507
                   16         17         18         19         20
    16  C    0.000000
    17  C    1.377798   0.000000
    18  H    6.253127   6.573497   0.000000
    19  H    6.252817   6.573312   1.783414   0.000000
    20  H    8.972626   8.748240   4.006886   4.007365   0.000000
    21  H    3.885091   4.361807   2.488888   2.488234   5.679596
    22  H    3.288657   2.255706   5.704996   5.704984   6.967719
    23  H    2.188186   1.078078   7.607326   7.607184   9.593564
                   21         22         23
    21  H    0.000000
    22  H    4.054174   0.000000
    23  H    5.434250   2.761391   0.000000
 Stoichiometry    C8H6N4O5
 Framework group  C1[X(C8H6N4O5)]
 Deg. of freedom    63
 Full point group                 C1      NOp   1
 Largest Abelian subgroup         C1      NOp   1
 Largest concise Abelian subgroup C1      NOp   1
                         Standard orientation:                         
 ---------------------------------------------------------------------
 Center     Atomic      Atomic             Coordinates (Angstroms)
 Number     Number       Type             X           Y           Z
 ---------------------------------------------------------------------
      1          8           0        2.283550   -0.607343    0.000111
      2          8           0       -5.120179   -2.007302   -0.000456
      3          8           0       -3.380205    2.313875    0.000000
      4          8           0        5.746291    0.091776   -0.000035
      5          8           0        4.653416   -1.876350    0.000136
      6          7           0       -2.338602    0.179418    0.000060
      7          7           0       -4.567744    0.274635   -0.000081
      8          7           0       -1.067681    0.647352    0.000095
      9          7           0        4.686014   -0.611550    0.000079
     10          6           0       -2.777698   -1.218471   -0.000131
     11          6           0       -4.300912   -1.089786    0.000315
     12          6           0       -3.415614    1.091375   -0.000065
     13          6           0        1.262712    0.331015    0.000084
     14          6           0       -0.077476   -0.197949    0.000184
     15          6           0        1.795515    1.610899   -0.000064
     16          6           0        3.455466    0.111261    0.000041
     17          6           0        3.212236    1.467420   -0.000061
     18          1           0       -2.443430   -1.761936   -0.892005
     19          1           0       -2.443097   -1.762274    0.891409
     20          1           0       -5.499680    0.671047   -0.000343
     21          1           0       -0.168767   -1.288334    0.000279
     22          1           0        1.217875    2.521332   -0.000133
     23          1           0        3.964829    2.239337   -0.000134
 ---------------------------------------------------------------------
 Rotational constants (GHZ):      1.4371168      0.1633827      0.1468409

 **********************************************************************

            Population analysis using the SCF density.

 **********************************************************************

 Orbital symmetries:
       Occupied  (A) (A) (A) (A) (A) (A) (A) (A) (A) (A) (A) (A)
                 (A) (A) (A) (A) (A) (A) (A) (A) (A) (A) (A) (A)
                 (A) (A) (A) (A) (A) (A) (A) (A) (A) (A) (A) (A)
                 (A) (A) (A) (A) (A) (A) (A) (A) (A) (A) (A) (A)
                 (A) (A) (A) (A) (A) (A) (A) (A) (A) (A) (A) (A)
                 (A)
       Virtual   (A) (A) (A) (A) (A) (A) (A) (A) (A) (A) (A) (A)
                 (A) (A) (A) (A) (A) (A) (A) (A) (A) (A) (A) (A)
                 (A) (A) (A) (A) (A) (A) (A) (A) (A) (A) (A) (A)
                 (A) (A) (A) (A) (A) (A) (A) (A) (A) (A) (A) (A)
                 (A) (A) (A) (A) (A) (A) (A) (A) (A) (A) (A) (A)
                 (A) (A) (A) (A) (A) (A) (A) (A) (A) (A) (A) (A)
                 (A) (A) (A) (A) (A) (A) (A) (A) (A) (A) (A) (A)
                 (A) (A) (A) (A) (A) (A) (A) (A) (A) (A) (A) (A)
                 (A) (A) (A) (A) (A) (A) (A) (A)
 The electronic state is 1-A.
 Alpha  occ. eigenvalues --  -19.34799 -19.28004 -19.27716 -19.26193 -19.25471
 Alpha  occ. eigenvalues --  -14.65776 -14.52403 -14.50679 -14.48998 -10.45266
 Alpha  occ. eigenvalues --  -10.43590 -10.39653 -10.37835 -10.35617 -10.35053
 Alpha  occ. eigenvalues --  -10.32133 -10.30803  -1.26233  -1.20507  -1.15577
 Alpha  occ. eigenvalues --   -1.12707  -1.09399  -1.08961  -1.02585  -0.92820
 Alpha  occ. eigenvalues --   -0.88563  -0.86811  -0.82161  -0.77723  -0.71250
 Alpha  occ. eigenvalues --   -0.69084  -0.68223  -0.63279  -0.61340  -0.60040
 Alpha  occ. eigenvalues --   -0.58164  -0.57688  -0.57518  -0.57334  -0.53693
 Alpha  occ. eigenvalues --   -0.52620  -0.52130  -0.51455  -0.49003  -0.48429
 Alpha  occ. eigenvalues --   -0.47575  -0.47486  -0.47325  -0.46885  -0.44037
 Alpha  occ. eigenvalues --   -0.42409  -0.35235  -0.35211  -0.34295  -0.34008
 Alpha  occ. eigenvalues --   -0.33628  -0.33294  -0.32998  -0.31574  -0.31475
 Alpha  occ. eigenvalues --   -0.27380
 Alpha virt. eigenvalues --   -0.12688  -0.07882  -0.04986   0.00902   0.02284
 Alpha virt. eigenvalues --    0.05275   0.06430   0.06883   0.08777   0.09961
 Alpha virt. eigenvalues --    0.10303   0.11847   0.13624   0.14579   0.14688
 Alpha virt. eigenvalues --    0.15814   0.16858   0.18399   0.18909   0.19699
 Alpha virt. eigenvalues --    0.20521   0.22029   0.23096   0.23923   0.25490
 Alpha virt. eigenvalues --    0.26190   0.26722   0.27584   0.29427   0.29551
 Alpha virt. eigenvalues --    0.30987   0.31118   0.32884   0.33341   0.33704
 Alpha virt. eigenvalues --    0.33999   0.34042   0.34680   0.35713   0.36458
 Alpha virt. eigenvalues --    0.38513   0.39316   0.39920   0.41728   0.43006
 Alpha virt. eigenvalues --    0.44370   0.44433   0.46074   0.48655   0.51957
 Alpha virt. eigenvalues --    0.52542   0.53126   0.55057   0.57364   0.57884
 Alpha virt. eigenvalues --    0.58634   0.59530   0.59981   0.60712   0.61794
 Alpha virt. eigenvalues --    0.63333   0.66488   0.66624   0.69003   0.70033
 Alpha virt. eigenvalues --    0.71080   0.76289   0.76589   0.78439   0.78566
 Alpha virt. eigenvalues --    0.80302   0.80442   0.81921   0.82254   0.82884
 Alpha virt. eigenvalues --    0.84248   0.85834   0.86813   0.88864   0.92130
 Alpha virt. eigenvalues --    0.92734   0.94302   0.98694   1.01610   1.02046
 Alpha virt. eigenvalues --    1.04915   1.05607   1.08025   1.12287   1.14884
 Alpha virt. eigenvalues --    1.15836   1.20363   1.31915   1.39624   1.42690
 Alpha virt. eigenvalues --    1.47718   1.58276   1.62819   1.78516   1.79368
 Alpha virt. eigenvalues --    1.84429   1.88334   1.97791   2.01555
          Condensed to atoms (all electrons):
               1          2          3          4          5          6
     1  O    7.844180   0.000000   0.000000   0.002217   0.003643  -0.000074
     2  O    0.000000   7.727815  -0.000012   0.000000   0.000000   0.000509
     3  O    0.000000  -0.000012   7.707628   0.000000   0.000000  -0.061123
     4  O    0.002217   0.000000   0.000000   8.193277  -0.117206   0.000000
     5  O    0.003643   0.000000   0.000000  -0.117206   8.163610   0.000000
     6  N   -0.000074   0.000509  -0.061123   0.000000   0.000000   7.162133
     7  N    0.000000  -0.079165  -0.062001   0.000000   0.000000  -0.123836
     8  N   -0.000290  -0.000125   0.001286   0.000000   0.000000   0.185338
     9  N   -0.026929   0.000000   0.000000   0.262100   0.273273   0.000000
    10  C    0.000038  -0.055923   0.001623   0.000000   0.000000   0.109579
    11  C    0.000000   0.658980  -0.003501   0.000000   0.000000  -0.010028
    12  C    0.000004  -0.005411   0.663434   0.000000   0.000000   0.205472
    13  C    0.306206   0.000000   0.000044   0.002377   0.002899   0.002514
    14  C   -0.028787  -0.000015  -0.001433   0.000023   0.000124  -0.109728
    15  C   -0.090500   0.000000   0.000022  -0.000032  -0.000504  -0.000489
    16  C    0.343804   0.000000   0.000000  -0.121253  -0.105529  -0.000089
    17  C   -0.073005   0.000000   0.000000   0.031858   0.011396  -0.000005
    18  H    0.000000  -0.000902  -0.000017   0.000000   0.000000  -0.041286
    19  H    0.000000  -0.000892  -0.000017   0.000000   0.000000  -0.041272
    20  H    0.000000   0.001036  -0.002773   0.000000   0.000000   0.000678
    21  H    0.000318   0.000004  -0.000014   0.000000   0.000004  -0.029976
    22  H    0.002868   0.000000  -0.000009  -0.000003   0.000001   0.000075
    23  H    0.002320   0.000000   0.000000  -0.001177  -0.000015   0.000000
               7          8          9         10         11         12
     1  O    0.000000  -0.000290  -0.026929   0.000038   0.000000   0.000004
     2  O   -0.079165  -0.000125   0.000000  -0.055923   0.658980  -0.005411
     3  O   -0.062001   0.001286   0.000000   0.001623  -0.003501   0.663434
     4  O    0.000000   0.000000   0.262100   0.000000   0.000000   0.000000
     5  O    0.000000   0.000000   0.273273   0.000000   0.000000   0.000000
     6  N   -0.123836   0.185338   0.000000   0.109579  -0.010028   0.205472
     7  N    7.145867  -0.002114   0.000000  -0.068876   0.185885   0.198704
     8  N   -0.002114   6.341016   0.000002  -0.047302   0.001853  -0.059611
     9  N    0.000000   0.000002   6.386110   0.000000   0.000000   0.000000
    10  C   -0.068876  -0.047302   0.000000   5.772818   0.149786  -0.174505
    11  C    0.185885   0.001853   0.000000   0.149786   4.890854  -0.069994
    12  C    0.198704  -0.059611   0.000000  -0.174505  -0.069994   4.887840
    13  C    0.000005  -0.063851  -0.008327  -0.001938  -0.000167   0.000348
    14  C   -0.000219   0.587815   0.000171   0.003488  -0.002088  -0.015222
    15  C    0.000011   0.019384   0.000656   0.000632  -0.000015  -0.000523
    16  C    0.000000  -0.000010  -0.033522   0.000015   0.000000   0.000000
    17  C    0.000000   0.000957   0.035191   0.000003   0.000000  -0.000002
    18  H   -0.002759   0.000832   0.000000   0.358603  -0.021650   0.001987
    19  H   -0.002744   0.000827   0.000000   0.358516  -0.021596   0.001991
    20  H    0.319935  -0.000011   0.000000   0.007683  -0.026245  -0.024671
    21  H    0.000051  -0.037259  -0.000009   0.028643  -0.000387  -0.001918
    22  H    0.000000   0.001350  -0.000012  -0.000003   0.000000   0.000031
    23  H    0.000000   0.000003  -0.000457   0.000000   0.000000   0.000000
              13         14         15         16         17         18
     1  O    0.306206  -0.028787  -0.090500   0.343804  -0.073005   0.000000
     2  O    0.000000  -0.000015   0.000000   0.000000   0.000000  -0.000902
     3  O    0.000044  -0.001433   0.000022   0.000000   0.000000  -0.000017
     4  O    0.002377   0.000023  -0.000032  -0.121253   0.031858   0.000000
     5  O    0.002899   0.000124  -0.000504  -0.105529   0.011396   0.000000
     6  N    0.002514  -0.109728  -0.000489  -0.000089  -0.000005  -0.041286
     7  N    0.000005  -0.000219   0.000011   0.000000   0.000000  -0.002759
     8  N   -0.063851   0.587815   0.019384  -0.000010   0.000957   0.000832
     9  N   -0.008327   0.000171   0.000656  -0.033522   0.035191   0.000000
    10  C   -0.001938   0.003488   0.000632   0.000015   0.000003   0.358603
    11  C   -0.000167  -0.002088  -0.000015   0.000000   0.000000  -0.021650
    12  C    0.000348  -0.015222  -0.000523   0.000000  -0.000002   0.001987
    13  C    4.925711   0.233029   0.478060  -0.166999  -0.086736   0.000023
    14  C    0.233029   5.424495  -0.048409  -0.004948  -0.002748   0.001010
    15  C    0.478060  -0.048409   5.242487  -0.087818   0.449878  -0.000006
    16  C   -0.166999  -0.004948  -0.087818   5.479843   0.405380   0.000001
    17  C   -0.086736  -0.002748   0.449878   0.405380   5.179545   0.000000
    18  H    0.000023   0.001010  -0.000006   0.000001   0.000000   0.441509
    19  H    0.000023   0.001008  -0.000006   0.000001   0.000000  -0.023708
    20  H    0.000000   0.000005   0.000000   0.000000   0.000000  -0.000071
    21  H   -0.027820   0.273154   0.006685   0.000085   0.000116  -0.000630
    22  H   -0.010854  -0.002366   0.339975   0.003213  -0.022065   0.000000
    23  H    0.003247  -0.000121  -0.015072  -0.017326   0.339235   0.000000
              19         20         21         22         23
     1  O    0.000000   0.000000   0.000318   0.002868   0.002320
     2  O   -0.000892   0.001036   0.000004   0.000000   0.000000
     3  O   -0.000017  -0.002773  -0.000014  -0.000009   0.000000
     4  O    0.000000   0.000000   0.000000  -0.000003  -0.001177
     5  O    0.000000   0.000000   0.000004   0.000001  -0.000015
     6  N   -0.041272   0.000678  -0.029976   0.000075   0.000000
     7  N   -0.002744   0.319935   0.000051   0.000000   0.000000
     8  N    0.000827  -0.000011  -0.037259   0.001350   0.000003
     9  N    0.000000   0.000000  -0.000009  -0.000012  -0.000457
    10  C    0.358516   0.007683   0.028643  -0.000003   0.000000
    11  C   -0.021596  -0.026245  -0.000387   0.000000   0.000000
    12  C    0.001991  -0.024671  -0.001918   0.000031   0.000000
    13  C    0.000023   0.000000  -0.027820  -0.010854   0.003247
    14  C    0.001008   0.000005   0.273154  -0.002366  -0.000121
    15  C   -0.000006   0.000000   0.006685   0.339975  -0.015072
    16  C    0.000001   0.000000   0.000085   0.003213  -0.017326
    17  C    0.000000   0.000000   0.000116  -0.022065   0.339235
    18  H   -0.023708  -0.000071  -0.000630   0.000000   0.000000
    19  H    0.441589  -0.000071  -0.000629   0.000000   0.000000
    20  H   -0.000071   0.328422   0.000000   0.000000   0.000000
    21  H   -0.000629   0.000000   0.547954   0.000006   0.000002
    22  H    0.000000   0.000000   0.000006   0.407927  -0.000340
    23  H    0.000000   0.000000   0.000002  -0.000340   0.410443
 Mulliken charges:
               1
     1  O   -0.286012
     2  O   -0.245899
     3  O   -0.243135
     4  O   -0.252180
     5  O   -0.231696
     6  N   -0.248394
     7  N   -0.508747
     8  N    0.069909
     9  N    0.111754
    10  C   -0.442880
    11  C    0.268312
    12  C    0.392046
    13  C    0.412205
    14  C   -0.308236
    15  C   -0.294414
    16  C    0.305152
    17  C   -0.268997
    18  H    0.287063
    19  H    0.286981
    20  H    0.396083
    21  H    0.241619
    22  H    0.280206
    23  H    0.279259
 Sum of Mulliken charges =   0.00000
 Mulliken charges with hydrogens summed into heavy atoms:
               1
     1  O   -0.286012
     2  O   -0.245899
     3  O   -0.243135
     4  O   -0.252180
     5  O   -0.231696
     6  N   -0.248394
     7  N   -0.112663
     8  N    0.069909
     9  N    0.111754
    10  C    0.131165
    11  C    0.268312
    12  C    0.392046
    13  C    0.412205
    14  C   -0.066618
    15  C   -0.014207
    16  C    0.305152
    17  C    0.010261
 Electronic spatial extent (au):  <R**2>=           6538.5109
 Charge=              0.0000 electrons
 Dipole moment (field-independent basis, Debye):
    X=             -3.9511    Y=              1.1935    Z=              0.0003  Tot=              4.1274
 Quadrupole moment (field-independent basis, Debye-Ang):
   XX=           -130.7649   YY=           -107.6506   ZZ=            -93.1536
   XY=             10.8039   XZ=             -0.0028   YZ=             -0.0026
 Traceless Quadrupole moment (field-independent basis, Debye-Ang):
   XX=            -20.2418   YY=              2.8724   ZZ=             17.3694
   XY=             10.8039   XZ=             -0.0028   YZ=             -0.0026
 Octapole moment (field-independent basis, Debye-Ang**2):
  XXX=           -194.8166  YYY=              3.4780  ZZZ=             -0.0028  XYY=             51.8393
  XXY=            115.4095  XXZ=              0.0115  XZZ=              0.3256  YZZ=             -7.8074
  YYZ=              0.0005  XYZ=              0.0145
 Hexadecapole moment (field-independent basis, Debye-Ang**3):
 XXXX=          -8592.3818 YYYY=           -968.5714 ZZZZ=            -90.7112 XXXY=           -258.8522
 XXXZ=             -0.1097 YYYX=             71.1722 YYYZ=             -0.0117 ZZZX=             -0.0432
 ZZZY=              0.0011 XXYY=          -1669.4472 XXZZ=          -1174.1666 YYZZ=           -162.6083
 XXYZ=             -0.0674 YYXZ=             -0.0406 ZZXY=            -13.1897
 N-N= 1.105387025018D+03 E-N=-4.322102684618D+03  KE= 8.987245988846D+02
 1\1\GINC-NODE045\FOpt\RM06\LANL2DZ\C8H6N4O5\SUPERCOMPUTO1\21-Jul-2020\
 0\\#opt M06/lanl2dz integral=ultrafine geom=connectivity\\Title Card R
 equired\\0,1\O,-2.2839807465,-0.6113175714,-0.0002133613\O,5.121832799
 5,-2.0002079378,0.0003538515\O,3.3754011691,2.3183631525,-0.0001029881
 \O,-5.7477624416,0.082624487,-0.000067134\O,-4.6519463004,-1.883865331
 4,-0.0002387273\N,2.3369909182,0.1823517026,-0.0001620961\N,4.56598795
 76,0.280901255,-0.0000210464\N,1.0653715142,0.6483855871,-0.0001970848
 \N,-4.6864351687,-0.6191154678,-0.0001819631\C,2.7781760163,-1.2148792
 072,0.000027977\C,4.3011952936,-1.083917546,-0.0004176991\C,3.41263759
 06,1.095917936,-0.000037167\C,-1.2645457218,0.3285650952,-0.0001862327
 \C,0.0764310745,-0.1983947419,-0.0002867187\C,-1.799262258,1.607651658
 ,-0.0000384577\C,-3.4569696191,0.1055332082,-0.0001432658\C,-3.2157671
 405,1.462054515,-0.0000414078\H,2.4447205498,-1.7588434455,0.891902479
 8\H,2.4443876918,-1.7591814707,-0.8915114679\H,5.4973302442,0.67870532
 61,0.00023999\H,0.1693517394,-1.288641812,-0.0003816268\H,-1.222983182
 3,2.5189470337,0.0000308002\H,-3.9695129799,2.2328455753,0.0000313458\
 \Version=ES64L-G09RevD.01\State=1-A\HF=-902.7762799\RMSD=3.948e-09\RMS
 F=3.052e-05\Dipole=1.5537781,0.4718723,-0.0001018\Quadrupole=-15.02525
 44,2.1115263,12.9137281,-8.0580604,-0.0020742,0.0019601\PG=C01 [X(C8H6
 N4O5)]\\@


 "WHERE SHALL I START, PLEASE YOUR MAJESTY?" HE ASKED.
 "BEGIN AT THE BEGINNING," THE KING SAID GRAVELY,
 "AND GO ON TILL YOU COME TO THE END: THEN STOP." 

                                      -- LEWIS CARROLL
 Job cpu time:       0 days  0 hours 49 minutes 50.0 seconds.
 File lengths (MBytes):  RWF=     19 Int=      0 D2E=      0 Chk=      3 Scr=      1
 Normal termination of Gaussian 09 at Tue Jul 21 03:47:57 2020.
