 Entering Gaussian System, Link 0=g09
 Input=rosoxacino.gjf
 Output=rosoxacino.log
 Initial command:
 /usr/local/cluster_programs/g09/l1.exe "/tmp/scratch/64207.prometeo/Gau-20642.inp" -scrdir="/tmp/scratch/64207.prometeo/"
 Entering Link 1 = /usr/local/cluster_programs/g09/l1.exe PID=     20643.
  
 Copyright (c) 1988,1990,1992,1993,1995,1998,2003,2009,2013,
            Gaussian, Inc.  All Rights Reserved.
  
 This is part of the Gaussian(R) 09 program.  It is based on
 the Gaussian(R) 03 system (copyright 2003, Gaussian, Inc.),
 the Gaussian(R) 98 system (copyright 1998, Gaussian, Inc.),
 the Gaussian(R) 94 system (copyright 1995, Gaussian, Inc.),
 the Gaussian 92(TM) system (copyright 1992, Gaussian, Inc.),
 the Gaussian 90(TM) system (copyright 1990, Gaussian, Inc.),
 the Gaussian 88(TM) system (copyright 1988, Gaussian, Inc.),
 the Gaussian 86(TM) system (copyright 1986, Carnegie Mellon
 University), and the Gaussian 82(TM) system (copyright 1983,
 Carnegie Mellon University). Gaussian is a federally registered
 trademark of Gaussian, Inc.
  
 This software contains proprietary and confidential information,
 including trade secrets, belonging to Gaussian, Inc.
  
 This software is provided under written license and may be
 used, copied, transmitted, or stored only in accord with that
 written license.
  
 The following legend is applicable only to US Government
 contracts under FAR:
  
                    RESTRICTED RIGHTS LEGEND
  
 Use, reproduction and disclosure by the US Government is
 subject to restrictions as set forth in subparagraphs (a)
 and (c) of the Commercial Computer Software - Restricted
 Rights clause in FAR 52.227-19.
  
 Gaussian, Inc.
 340 Quinnipiac St., Bldg. 40, Wallingford CT 06492
  
  
 ---------------------------------------------------------------
 Warning -- This program may not be used in any manner that
 competes with the business of Gaussian, Inc. or will provide
 assistance to any competitor of Gaussian, Inc.  The licensee
 of this program is prohibited from giving any competitor of
 Gaussian, Inc. access to this program.  By using this program,
 the user acknowledges that Gaussian, Inc. is engaged in the
 business of creating and licensing software in the field of
 computational chemistry and represents and warrants to the
 licensee that it is not a competitor of Gaussian, Inc. and that
 it will not use this program in any manner prohibited above.
 ---------------------------------------------------------------
  

 Cite this work as:
 Gaussian 09, Revision D.01,
 M. J. Frisch, G. W. Trucks, H. B. Schlegel, G. E. Scuseria, 
 M. A. Robb, J. R. Cheeseman, G. Scalmani, V. Barone, B. Mennucci, 
 G. A. Petersson, H. Nakatsuji, M. Caricato, X. Li, H. P. Hratchian, 
 A. F. Izmaylov, J. Bloino, G. Zheng, J. L. Sonnenberg, M. Hada, 
 M. Ehara, K. Toyota, R. Fukuda, J. Hasegawa, M. Ishida, T. Nakajima, 
 Y. Honda, O. Kitao, H. Nakai, T. Vreven, J. A. Montgomery, Jr., 
 J. E. Peralta, F. Ogliaro, M. Bearpark, J. J. Heyd, E. Brothers, 
 K. N. Kudin, V. N. Staroverov, T. Keith, R. Kobayashi, J. Normand, 
 K. Raghavachari, A. Rendell, J. C. Burant, S. S. Iyengar, J. Tomasi, 
 M. Cossi, N. Rega, J. M. Millam, M. Klene, J. E. Knox, J. B. Cross, 
 V. Bakken, C. Adamo, J. Jaramillo, R. Gomperts, R. E. Stratmann, 
 O. Yazyev, A. J. Austin, R. Cammi, C. Pomelli, J. W. Ochterski, 
 R. L. Martin, K. Morokuma, V. G. Zakrzewski, G. A. Voth, 
 P. Salvador, J. J. Dannenberg, S. Dapprich, A. D. Daniels, 
 O. Farkas, J. B. Foresman, J. V. Ortiz, J. Cioslowski, 
 and D. J. Fox, Gaussian, Inc., Wallingford CT, 2013.
 
 ******************************************
 Gaussian 09:  ES64L-G09RevD.01 24-Apr-2013
                21-Jul-2020 
 ******************************************
 %nprocshared=20
 Will use up to   20 processors via shared memory.
 -----------------------------------------------------
 #opt M06/lanl2dz integral=ultrafine geom=connectivity
 -----------------------------------------------------
 1/14=-1,18=20,19=15,26=4,38=1,57=2/1,3;
 2/9=110,12=2,17=6,18=5,40=1/2;
 3/5=6,6=3,11=2,16=1,25=1,30=1,71=1,74=-54,75=-5/1,2,3;
 4//1;
 5/5=2,38=5/2;
 6/7=2,8=2,9=2,10=2,28=1/1;
 7//1,2,3,16;
 1/14=-1,18=20,19=15,26=4/3(2);
 2/9=110/2;
 99//99;
 2/9=110/2;
 3/5=6,6=3,11=2,16=1,25=1,30=1,71=1,74=-54,75=-5/1,2,3;
 4/5=5,16=3,69=1/1;
 5/5=2,38=5/2;
 7//1,2,3,16;
 1/14=-1,18=20,19=15,26=4/3(-5);
 2/9=110/2;
 6/7=2,8=2,9=2,10=2,19=2,28=1/1;
 99/9=1/99;
 -------------------
 Title Card Required
 -------------------
 Symbolic Z-matrix:
 Charge =  0 Multiplicity = 1
 O(PDBName=O1,ResName=MOL,ResNum=1) 0    -2.77354  -2.4704    0.40152  L 
 O(PDBName=O2,ResName=MOL,ResNum=1) 0    -5.24905  -1.36117   0.14683  L 
 O(PDBName=O3,ResName=MOL,ResNum=1) 0    -5.38245   0.87047  -0.3134   L 
 N(PDBName=N4,ResName=MOL,ResNum=1) 0    -1.32625   1.3379   -0.36734  L 
 N(PDBName=N5,ResName=MOL,ResNum=1) 0     6.11375   0.09729  -0.08101  L 
 C(PDBName=C6,ResName=MOL,ResNum=1) 0    -0.41463   0.29034  -0.14066  L 
 C(PDBName=C7,ResName=MOL,ResNum=1) 0    -0.92204  -1.00115   0.11315  L 
 C(PDBName=C8,ResName=MOL,ResNum=1) 0    -0.86791   2.7377   -0.59411  L 
 C(PDBName=C9,ResName=MOL,ResNum=1) 0     0.97642   0.48947  -0.17292  L 
 C(PDBName=C10,ResName=MOL,ResNum=1) 0     1.85623  -0.57399   0.036    L 
 C(PDBName=C11,ResName=MOL,ResNum=1) 0    -2.66001   1.08068  -0.32525  L 
 C(PDBName=C12,ResName=MOL,ResNum=1) 0    -2.3834   -1.31084   0.16789  L 
 C(PDBName=C13,ResName=MOL,ResNum=1) 0    -3.2213   -0.14128  -0.07894  L 
 C(PDBName=C14,ResName=MOL,ResNum=1) 0    -0.02869  -2.0585    0.32241  L 
 C(PDBName=C15,ResName=MOL,ResNum=1) 0     1.34017  -1.86243   0.28445  L 
 C(PDBName=C16,ResName=MOL,ResNum=1) 0     3.32376  -0.34178  -0.00219  L 
 C(PDBName=C17,ResName=MOL,ResNum=1) 0    -0.5127    3.44991   0.72429  L 
 C(PDBName=C18,ResName=MOL,ResNum=1) 0    -4.69187  -0.13371  -0.09885  L 
 C(PDBName=C19,ResName=MOL,ResNum=1) 0     4.18391  -1.24022  -0.65331  L 
 C(PDBName=C20,ResName=MOL,ResNum=1) 0     3.90236   0.78074   0.61138  L 
 C(PDBName=C21,ResName=MOL,ResNum=1) 0     5.55321  -0.98287  -0.66767  L 
 C(PDBName=C22,ResName=MOL,ResNum=1) 0     5.28291   0.95713   0.54711  L 
 H(PDBName=H23,ResName=MOL,ResNum=1) 0    -0.01779   2.71745  -1.28042  L 
 H(PDBName=H24,ResName=MOL,ResNum=1) 0    -1.687     3.25779  -1.09699  L 
 H(PDBName=H25,ResName=MOL,ResNum=1) 0     1.38676   1.46664  -0.38475  L 
 H(PDBName=H26,ResName=MOL,ResNum=1) 0    -3.32832   1.91476  -0.50643  L 
 H(PDBName=H27,ResName=MOL,ResNum=1) 0    -0.4682   -3.02864   0.52015  L 
 H(PDBName=H28,ResName=MOL,ResNum=1) 0     2.02067  -2.68387   0.47138  L 
 H(PDBName=H29,ResName=MOL,ResNum=1) 0    -1.3903    3.49412   1.37595  L 
 H(PDBName=H30,ResName=MOL,ResNum=1) 0     0.2844    2.91982   1.25272  L 
 H(PDBName=H31,ResName=MOL,ResNum=1) 0    -0.17812   4.47137   0.51503  L 
 H(PDBName=H32,ResName=MOL,ResNum=1) 0     3.78583  -2.11136  -1.15845  L 
 H(PDBName=H33,ResName=MOL,ResNum=1) 0     3.2859    1.48784   1.15281  L 
 H(PDBName=H34,ResName=MOL,ResNum=1) 0     6.22972  -1.66335  -1.17287  L 
 H(PDBName=H35,ResName=MOL,ResNum=1) 0     5.7454    1.81515   1.02265  L 
 H(PDBName=H36,ResName=MOL,ResNum=1) 0    -6.23961  -1.25049   0.1114   L 
 
 Center=      0.32022858      0.31723656      0.01893217
 Residue   1 PDB Number     1_0 MOL charge    0.00000000 layers R        AvRTP=      0.00000000      0.00000000    180.00000000

 GradGradGradGradGradGradGradGradGradGradGradGradGradGradGradGradGradGrad
 Berny optimization.
 Initialization pass.
                           ----------------------------
                           !    Initial Parameters    !
                           ! (Angstroms and Degrees)  !
 --------------------------                            --------------------------
 ! Name  Definition              Value          Derivative Info.                !
 --------------------------------------------------------------------------------
 ! R1    R(1,12)                 1.2455         estimate D2E/DX2                !
 ! R2    R(2,18)                 1.3702         estimate D2E/DX2                !
 ! R3    R(2,36)                 0.9973         estimate D2E/DX2                !
 ! R4    R(3,18)                 1.2375         estimate D2E/DX2                !
 ! R5    R(4,6)                  1.4071         estimate D2E/DX2                !
 ! R6    R(4,8)                  1.4903         estimate D2E/DX2                !
 ! R7    R(4,11)                 1.359          estimate D2E/DX2                !
 ! R8    R(5,21)                 1.351          estimate D2E/DX2                !
 ! R9    R(5,22)                 1.3506         estimate D2E/DX2                !
 ! R10   R(6,7)                  1.4106         estimate D2E/DX2                !
 ! R11   R(6,9)                  1.4056         estimate D2E/DX2                !
 ! R12   R(7,12)                 1.4948         estimate D2E/DX2                !
 ! R13   R(7,14)                 1.4            estimate D2E/DX2                !
 ! R14   R(8,17)                 1.54           estimate D2E/DX2                !
 ! R15   R(8,23)                 1.0928         estimate D2E/DX2                !
 ! R16   R(8,24)                 1.0928         estimate D2E/DX2                !
 ! R17   R(9,10)                 1.3959         estimate D2E/DX2                !
 ! R18   R(9,25)                 1.0808         estimate D2E/DX2                !
 ! R19   R(10,15)                1.41           estimate D2E/DX2                !
 ! R20   R(10,16)                1.4863         estimate D2E/DX2                !
 ! R21   R(11,13)                1.3671         estimate D2E/DX2                !
 ! R22   R(11,26)                1.084          estimate D2E/DX2                !
 ! R23   R(12,13)                1.4597         estimate D2E/DX2                !
 ! R24   R(13,18)                1.4707         estimate D2E/DX2                !
 ! R25   R(14,15)                1.3834         estimate D2E/DX2                !
 ! R26   R(14,27)                1.0833         estimate D2E/DX2                !
 ! R27   R(15,28)                1.083          estimate D2E/DX2                !
 ! R28   R(16,19)                1.4039         estimate D2E/DX2                !
 ! R29   R(16,20)                1.404          estimate D2E/DX2                !
 ! R30   R(17,29)                1.094          estimate D2E/DX2                !
 ! R31   R(17,30)                1.0934         estimate D2E/DX2                !
 ! R32   R(17,31)                1.095          estimate D2E/DX2                !
 ! R33   R(19,21)                1.3933         estimate D2E/DX2                !
 ! R34   R(19,32)                1.0828         estimate D2E/DX2                !
 ! R35   R(20,22)                1.3933         estimate D2E/DX2                !
 ! R36   R(20,33)                1.0831         estimate D2E/DX2                !
 ! R37   R(21,34)                1.0844         estimate D2E/DX2                !
 ! R38   R(22,35)                1.0845         estimate D2E/DX2                !
 ! A1    A(18,2,36)            107.3434         estimate D2E/DX2                !
 ! A2    A(6,4,8)              121.6383         estimate D2E/DX2                !
 ! A3    A(6,4,11)             119.3378         estimate D2E/DX2                !
 ! A4    A(8,4,11)             118.969          estimate D2E/DX2                !
 ! A5    A(21,5,22)            117.112          estimate D2E/DX2                !
 ! A6    A(4,6,7)              118.5264         estimate D2E/DX2                !
 ! A7    A(4,6,9)              122.1414         estimate D2E/DX2                !
 ! A8    A(7,6,9)              119.329          estimate D2E/DX2                !
 ! A9    A(6,7,12)             123.225          estimate D2E/DX2                !
 ! A10   A(6,7,14)             119.2648         estimate D2E/DX2                !
 ! A11   A(12,7,14)            117.5099         estimate D2E/DX2                !
 ! A12   A(4,8,17)             112.0285         estimate D2E/DX2                !
 ! A13   A(4,8,23)             108.507          estimate D2E/DX2                !
 ! A14   A(4,8,24)             106.6494         estimate D2E/DX2                !
 ! A15   A(17,8,23)            111.5192         estimate D2E/DX2                !
 ! A16   A(17,8,24)            110.2872         estimate D2E/DX2                !
 ! A17   A(23,8,24)            107.6319         estimate D2E/DX2                !
 ! A18   A(6,9,10)             120.8224         estimate D2E/DX2                !
 ! A19   A(6,9,25)             120.5521         estimate D2E/DX2                !
 ! A20   A(10,9,25)            118.6084         estimate D2E/DX2                !
 ! A21   A(9,10,15)            119.4611         estimate D2E/DX2                !
 ! A22   A(9,10,16)            119.9632         estimate D2E/DX2                !
 ! A23   A(15,10,16)           120.5756         estimate D2E/DX2                !
 ! A24   A(4,11,13)            125.2898         estimate D2E/DX2                !
 ! A25   A(4,11,26)            117.0162         estimate D2E/DX2                !
 ! A26   A(13,11,26)           117.6934         estimate D2E/DX2                !
 ! A27   A(1,12,7)             120.3951         estimate D2E/DX2                !
 ! A28   A(1,12,13)            126.7141         estimate D2E/DX2                !
 ! A29   A(7,12,13)            112.8906         estimate D2E/DX2                !
 ! A30   A(11,13,12)           120.7274         estimate D2E/DX2                !
 ! A31   A(11,13,18)           113.7968         estimate D2E/DX2                !
 ! A32   A(12,13,18)           125.4752         estimate D2E/DX2                !
 ! A33   A(7,14,15)            121.3519         estimate D2E/DX2                !
 ! A34   A(7,14,27)            116.4099         estimate D2E/DX2                !
 ! A35   A(15,14,27)           122.2371         estimate D2E/DX2                !
 ! A36   A(10,15,14)           119.7698         estimate D2E/DX2                !
 ! A37   A(10,15,28)           119.5742         estimate D2E/DX2                !
 ! A38   A(14,15,28)           120.6335         estimate D2E/DX2                !
 ! A39   A(10,16,19)           121.1232         estimate D2E/DX2                !
 ! A40   A(10,16,20)           121.3716         estimate D2E/DX2                !
 ! A41   A(19,16,20)           117.5052         estimate D2E/DX2                !
 ! A42   A(8,17,29)            110.0976         estimate D2E/DX2                !
 ! A43   A(8,17,30)            110.9568         estimate D2E/DX2                !
 ! A44   A(8,17,31)            109.7718         estimate D2E/DX2                !
 ! A45   A(29,17,30)           108.4522         estimate D2E/DX2                !
 ! A46   A(29,17,31)           108.7388         estimate D2E/DX2                !
 ! A47   A(30,17,31)           108.7738         estimate D2E/DX2                !
 ! A48   A(2,18,3)             122.0797         estimate D2E/DX2                !
 ! A49   A(2,18,13)            113.551          estimate D2E/DX2                !
 ! A50   A(3,18,13)            124.3693         estimate D2E/DX2                !
 ! A51   A(16,19,21)           119.2542         estimate D2E/DX2                !
 ! A52   A(16,19,32)           120.3952         estimate D2E/DX2                !
 ! A53   A(21,19,32)           120.3355         estimate D2E/DX2                !
 ! A54   A(16,20,22)           119.3014         estimate D2E/DX2                !
 ! A55   A(16,20,33)           120.387          estimate D2E/DX2                !
 ! A56   A(22,20,33)           120.2896         estimate D2E/DX2                !
 ! A57   A(5,21,19)            123.4324         estimate D2E/DX2                !
 ! A58   A(5,21,34)            116.4348         estimate D2E/DX2                !
 ! A59   A(19,21,34)           120.1318         estimate D2E/DX2                !
 ! A60   A(5,22,20)            123.3944         estimate D2E/DX2                !
 ! A61   A(5,22,35)            116.4399         estimate D2E/DX2                !
 ! A62   A(20,22,35)           120.1639         estimate D2E/DX2                !
 ! D1    D(36,2,18,3)            0.0572         estimate D2E/DX2                !
 ! D2    D(36,2,18,13)        -179.9824         estimate D2E/DX2                !
 ! D3    D(8,4,6,7)            177.797          estimate D2E/DX2                !
 ! D4    D(8,4,6,9)             -2.8531         estimate D2E/DX2                !
 ! D5    D(11,4,6,7)             0.5185         estimate D2E/DX2                !
 ! D6    D(11,4,6,9)           179.8685         estimate D2E/DX2                !
 ! D7    D(6,4,8,17)           -79.7978         estimate D2E/DX2                !
 ! D8    D(6,4,8,23)            43.7556         estimate D2E/DX2                !
 ! D9    D(6,4,8,24)           159.4453         estimate D2E/DX2                !
 ! D10   D(11,4,8,17)           97.4905         estimate D2E/DX2                !
 ! D11   D(11,4,8,23)         -138.9562         estimate D2E/DX2                !
 ! D12   D(11,4,8,24)          -23.2665         estimate D2E/DX2                !
 ! D13   D(6,4,11,13)           -0.1999         estimate D2E/DX2                !
 ! D14   D(6,4,11,26)         -179.9305         estimate D2E/DX2                !
 ! D15   D(8,4,11,13)         -177.5516         estimate D2E/DX2                !
 ! D16   D(8,4,11,26)            2.7178         estimate D2E/DX2                !
 ! D17   D(22,5,21,19)           0.0738         estimate D2E/DX2                !
 ! D18   D(22,5,21,34)         179.7138         estimate D2E/DX2                !
 ! D19   D(21,5,22,20)          -0.1067         estimate D2E/DX2                !
 ! D20   D(21,5,22,35)         179.4137         estimate D2E/DX2                !
 ! D21   D(4,6,7,12)            -0.6715         estimate D2E/DX2                !
 ! D22   D(4,6,7,14)           179.1205         estimate D2E/DX2                !
 ! D23   D(9,6,7,12)           179.9598         estimate D2E/DX2                !
 ! D24   D(9,6,7,14)            -0.2482         estimate D2E/DX2                !
 ! D25   D(4,6,9,10)          -179.0228         estimate D2E/DX2                !
 ! D26   D(4,6,9,25)            -0.5486         estimate D2E/DX2                !
 ! D27   D(7,6,9,10)             0.3221         estimate D2E/DX2                !
 ! D28   D(7,6,9,25)           178.7963         estimate D2E/DX2                !
 ! D29   D(6,7,12,1)          -179.7152         estimate D2E/DX2                !
 ! D30   D(6,7,12,13)            0.4624         estimate D2E/DX2                !
 ! D31   D(14,7,12,1)            0.4894         estimate D2E/DX2                !
 ! D32   D(14,7,12,13)        -179.333          estimate D2E/DX2                !
 ! D33   D(6,7,14,15)           -0.0412         estimate D2E/DX2                !
 ! D34   D(6,7,14,27)          179.5852         estimate D2E/DX2                !
 ! D35   D(12,7,14,15)         179.7627         estimate D2E/DX2                !
 ! D36   D(12,7,14,27)          -0.611          estimate D2E/DX2                !
 ! D37   D(4,8,17,29)          -60.5296         estimate D2E/DX2                !
 ! D38   D(4,8,17,30)           59.5398         estimate D2E/DX2                !
 ! D39   D(4,8,17,31)          179.7978         estimate D2E/DX2                !
 ! D40   D(23,8,17,29)         177.6263         estimate D2E/DX2                !
 ! D41   D(23,8,17,30)         -62.3043         estimate D2E/DX2                !
 ! D42   D(23,8,17,31)          57.9537         estimate D2E/DX2                !
 ! D43   D(24,8,17,29)          58.096          estimate D2E/DX2                !
 ! D44   D(24,8,17,30)         178.1654         estimate D2E/DX2                !
 ! D45   D(24,8,17,31)         -61.5766         estimate D2E/DX2                !
 ! D46   D(6,9,10,15)           -0.1057         estimate D2E/DX2                !
 ! D47   D(6,9,10,16)         -179.9952         estimate D2E/DX2                !
 ! D48   D(25,9,10,15)        -178.609          estimate D2E/DX2                !
 ! D49   D(25,9,10,16)           1.5015         estimate D2E/DX2                !
 ! D50   D(9,10,15,14)          -0.1853         estimate D2E/DX2                !
 ! D51   D(9,10,15,28)        -178.4735         estimate D2E/DX2                !
 ! D52   D(16,10,15,14)        179.7034         estimate D2E/DX2                !
 ! D53   D(16,10,15,28)          1.4153         estimate D2E/DX2                !
 ! D54   D(9,10,16,19)        -137.4218         estimate D2E/DX2                !
 ! D55   D(9,10,16,20)          42.6628         estimate D2E/DX2                !
 ! D56   D(15,10,16,19)         42.69           estimate D2E/DX2                !
 ! D57   D(15,10,16,20)       -137.2254         estimate D2E/DX2                !
 ! D58   D(4,11,13,12)           0.0032         estimate D2E/DX2                !
 ! D59   D(4,11,13,18)        -179.7264         estimate D2E/DX2                !
 ! D60   D(26,11,13,12)        179.7321         estimate D2E/DX2                !
 ! D61   D(26,11,13,18)          0.0025         estimate D2E/DX2                !
 ! D62   D(1,12,13,11)        -179.9298         estimate D2E/DX2                !
 ! D63   D(1,12,13,18)          -0.2336         estimate D2E/DX2                !
 ! D64   D(7,12,13,11)          -0.1209         estimate D2E/DX2                !
 ! D65   D(7,12,13,18)         179.5754         estimate D2E/DX2                !
 ! D66   D(11,13,18,2)         179.9192         estimate D2E/DX2                !
 ! D67   D(11,13,18,3)          -0.1215         estimate D2E/DX2                !
 ! D68   D(12,13,18,2)           0.2046         estimate D2E/DX2                !
 ! D69   D(12,13,18,3)        -179.8361         estimate D2E/DX2                !
 ! D70   D(7,14,15,10)           0.2597         estimate D2E/DX2                !
 ! D71   D(7,14,15,28)         178.5294         estimate D2E/DX2                !
 ! D72   D(27,14,15,10)       -179.3446         estimate D2E/DX2                !
 ! D73   D(27,14,15,28)         -1.0749         estimate D2E/DX2                !
 ! D74   D(10,16,19,21)        179.8615         estimate D2E/DX2                !
 ! D75   D(10,16,19,32)          1.2705         estimate D2E/DX2                !
 ! D76   D(20,16,19,21)         -0.22           estimate D2E/DX2                !
 ! D77   D(20,16,19,32)       -178.8109         estimate D2E/DX2                !
 ! D78   D(10,16,20,22)       -179.8919         estimate D2E/DX2                !
 ! D79   D(10,16,20,33)          1.8095         estimate D2E/DX2                !
 ! D80   D(19,16,20,22)          0.1898         estimate D2E/DX2                !
 ! D81   D(19,16,20,33)       -178.1088         estimate D2E/DX2                !
 ! D82   D(16,19,21,5)           0.0916         estimate D2E/DX2                !
 ! D83   D(16,19,21,34)       -179.5357         estimate D2E/DX2                !
 ! D84   D(32,19,21,5)         178.6835         estimate D2E/DX2                !
 ! D85   D(32,19,21,34)         -0.9439         estimate D2E/DX2                !
 ! D86   D(16,20,22,5)          -0.0269         estimate D2E/DX2                !
 ! D87   D(16,20,22,35)       -179.5301         estimate D2E/DX2                !
 ! D88   D(33,20,22,5)         178.2734         estimate D2E/DX2                !
 ! D89   D(33,20,22,35)         -1.2298         estimate D2E/DX2                !
 --------------------------------------------------------------------------------
 Trust Radius=3.00D-01 FncErr=1.00D-07 GrdErr=1.00D-06
 Number of steps in this run=    199 maximum allowed number of steps=    216.
 GradGradGradGradGradGradGradGradGradGradGradGradGradGradGradGradGradGrad

                          Input orientation:                          
 ---------------------------------------------------------------------
 Center     Atomic      Atomic             Coordinates (Angstroms)
 Number     Number       Type             X           Y           Z
 ---------------------------------------------------------------------
      1          8           0       -2.773543   -2.470399    0.401518
      2          8           0       -5.249053   -1.361165    0.146833
      3          8           0       -5.382452    0.870471   -0.313403
      4          7           0       -1.326246    1.337896   -0.367343
      5          7           0        6.113746    0.097289   -0.081009
      6          6           0       -0.414629    0.290338   -0.140657
      7          6           0       -0.922043   -1.001149    0.113151
      8          6           0       -0.867905    2.737699   -0.594109
      9          6           0        0.976419    0.489469   -0.172918
     10          6           0        1.856231   -0.573986    0.035999
     11          6           0       -2.660011    1.080678   -0.325245
     12          6           0       -2.383403   -1.310835    0.167892
     13          6           0       -3.221295   -0.141281   -0.078944
     14          6           0       -0.028691   -2.058502    0.322405
     15          6           0        1.340170   -1.862428    0.284447
     16          6           0        3.323758   -0.341775   -0.002192
     17          6           0       -0.512701    3.449914    0.724292
     18          6           0       -4.691869   -0.133714   -0.098848
     19          6           0        4.183910   -1.240219   -0.653306
     20          6           0        3.902362    0.780738    0.611382
     21          6           0        5.553205   -0.982870   -0.667674
     22          6           0        5.282914    0.957128    0.547109
     23          1           0       -0.017794    2.717448   -1.280416
     24          1           0       -1.687002    3.257785   -1.096989
     25          1           0        1.386762    1.466642   -0.384752
     26          1           0       -3.328320    1.914763   -0.506432
     27          1           0       -0.468197   -3.028638    0.520154
     28          1           0        2.020674   -2.683870    0.471382
     29          1           0       -1.390298    3.494118    1.375952
     30          1           0        0.284403    2.919816    1.252719
     31          1           0       -0.178115    4.471367    0.515031
     32          1           0        3.785833   -2.111356   -1.158451
     33          1           0        3.285899    1.487839    1.152805
     34          1           0        6.229721   -1.663348   -1.172874
     35          1           0        5.745396    1.815146    1.022651
     36          1           0       -6.239607   -1.250493    0.111398
 ---------------------------------------------------------------------
                    Distance matrix (angstroms):
                    1          2          3          4          5
     1  O    0.000000
     2  O    2.724594   0.000000
     3  O    4.298713   2.282501   0.000000
     4  N    4.145953   4.789334   4.083406   0.000000
     5  N    9.263356  11.458281  11.524512   7.548150   0.000000
     6  C    3.671525   5.116812   5.004564   1.407057   6.531501
     7  C    2.381156   4.342092   4.855941   2.421856   7.123664
     8  C    5.634449   6.045175   4.893513   1.490284   7.481877
     9  C    4.811758   6.502583   6.371824   2.461686   5.153094
    10  C    5.016452   7.149615   7.389660   3.734453   4.311697
    11  C    3.626461   3.590069   2.730570   1.358993   8.832073
    12  C    1.245544   2.866169   3.739523   2.901695   8.616630
    13  C    2.419941   2.377161   2.397752   2.421229   9.338089
    14  C    2.776712   5.269657   6.135625   3.700665   6.522247
    15  C    4.160044   6.609695   7.281470   4.216240   5.173111
    16  C    6.470788   8.634492   8.795708   4.957536   2.825424
    17  C    6.345526   6.775911   5.607567   2.512796   7.469833
    18  C    3.064382   1.370200   1.237468   3.683089  10.808099
    19  C    7.143679   9.467610   9.802338   6.090178   2.416758
    20  C    7.428435   9.410205   9.331187   5.348520   2.415932
    21  C    8.525881  10.839525  11.097251   7.266567   1.350972
    22  C    8.756463  10.791526  10.700375   6.682979   1.350606
    23  H    6.110386   6.785145   5.755519   2.109245   6.774924
    24  H    6.019816   5.964059   4.468739   2.085306   8.477772
    25  H    5.781579   7.232781   6.795791   2.716117   4.930696
    26  H    4.512405   3.853268   2.312415   2.088162   9.624802
    27  H    2.374937   5.077048   6.328331   4.537678   7.311278
    28  H    4.799476   7.396202   8.249576   5.299050   4.979279
    29  H    6.199867   6.322539   5.067025   2.773531   8.364918
    30  H    6.255397   7.083002   6.226219   2.778716   6.612619
    31  H    7.411966   7.737468   6.382623   3.451873   7.686048
    32  H    6.751876   9.159461   9.677957   6.217439   3.384992
    33  H    7.276601   9.053961   8.813128   4.858520   3.384176
    34  H    9.175446  11.558339  11.916438   8.170005   2.074961
    35  H    9.556360  11.477540  11.247509   7.222740   2.074796
    36  H    3.685911   0.997347   2.326727   5.574053  12.428148
                    6          7          8          9         10
     6  C    0.000000
     7  C    1.410612   0.000000
     8  C    2.529951   3.805540   0.000000
     9  C    1.405599   2.430625   2.938277   0.000000
    10  C    2.436200   2.811979   4.334191   1.395941   0.000000
    11  C    2.387562   2.747131   2.455535   3.687324   4.823365
    12  C    2.556370   1.494816   4.389534   3.826964   4.305211
    13  C    2.840331   2.462282   3.753980   4.245878   5.097226
    14  C    2.424959   1.399950   4.954576   2.783478   2.416350
    15  C    2.809704   2.426675   5.177705   2.423410   1.410010
    16  C    3.793979   4.298244   5.234841   2.496020   1.486276
    17  C    3.277297   4.511432   1.540000   3.433176   4.719890
    18  C    4.298413   3.874142   4.807598   5.702923   6.564270
    19  C    4.873600   5.168691   6.430254   3.675676   2.517359
    20  C    4.409361   5.167034   5.295125   3.043207   2.520515
    21  C    6.124855   6.522182   7.421502   4.833170   3.785493
    22  C    5.777510   6.521093   6.504259   4.391246   3.787836
    23  H    2.710607   4.072795   1.092756   2.679347   4.009795
    24  H    3.367380   4.493119   1.092839   3.951113   5.340471
    25  H    2.165244   3.415916   2.596717   1.080797   2.135789
    26  H    3.355912   3.831004   2.595872   4.546809   5.776476
    27  H    3.384545   2.117154   5.886594   3.865791   3.415068
    28  H    3.892455   3.408733   6.234787   3.402304   2.160604
    29  H    3.676444   4.692692   2.173984   4.126532   5.374467
    30  H    3.056844   4.257710   2.184434   2.901364   4.019665
    31  H    4.238734   5.537451   2.170624   4.202587   5.461101
    32  H    4.944484   5.001363   6.744560   3.953274   2.741091
    33  H    4.098897   4.998271   4.676318   2.843938   2.746330
    34  H    7.002125   7.296581   8.371408   5.764696   4.666422
    35  H    6.451685   7.294755   6.870281   5.092146   4.669801
    36  H    6.030594   5.323407   6.727451   7.428279   8.124404
                   11         12         13         14         15
    11  C    0.000000
    12  C    2.457444   0.000000
    13  C    1.367073   1.459742   0.000000
    14  C    4.147017   2.475389   3.745602   0.000000
    15  C    5.003503   3.766011   4.888902   1.383353   0.000000
    16  C    6.158996   5.791346   6.548573   3.780401   2.515784
    17  C    3.365375   5.145273   4.569283   5.544225   5.643365
    18  C    2.377909   2.604953   1.470728   5.062360   6.286562
    19  C    7.234186   6.618833   7.508303   4.400864   3.058330
    20  C    6.635659   6.639443   7.216173   4.857774   3.695679
    21  C    8.475400   7.987207   8.834406   5.770165   4.407927
    22  C    7.991641   8.003742   8.597675   6.112092   4.854289
    23  H    3.251566   4.890886   4.458507   5.037743   5.026741
    24  H    2.506418   4.791366   3.865763   5.746963   6.106449
    25  H    4.065573   4.715288   4.890105   3.863964   3.395984
    26  H    1.084050   3.428128   2.102740   5.230808   6.057017
    27  H    4.733416   2.596719   4.034265   1.083252   2.164670
    28  H    6.059311   4.623119   5.851996   2.147831   1.082958
    29  H    3.214177   5.053043   4.322661   5.813392   6.110599
    30  H    3.813394   5.117856   4.840822   5.074166   4.992199
    31  H    4.285166   6.198198   5.557902   6.534418   6.517309
    32  H    7.241009   6.360778   7.358422   4.092227   2.850471
    33  H    6.140379   6.398720   6.820177   4.924693   3.970415
    34  H    9.342135   8.723980   9.635096   6.446683   5.105989
    35  H    8.544421   8.750985   9.243520   6.988245   5.785803
    36  H    4.294010   3.857090   3.221302   6.266808   7.606407
                   16         17         18         19         20
    16  C    0.000000
    17  C    5.442711   0.000000
    18  C    8.018909   5.566453   0.000000
    19  C    1.403928   6.778885   8.961653   0.000000
    20  C    1.404027   5.160429   8.671877   2.400619   0.000000
    21  C    2.413359   7.640835  10.295930   1.393343   2.733419
    22  C    2.413954   6.311460  10.055023   2.734436   1.393258
    23  H    4.707300   2.190957   5.601090   5.806093   4.764176
    24  H    6.266030   2.175537   4.639804   7.409217   6.347857
    25  H    2.677439   2.961639   6.292268   3.901699   2.791235
    26  H    7.042469   3.434979   2.494323   8.149177   7.403937
    27  H    4.676644   6.481920   5.157825   5.120308   5.798401
    28  H    2.721711   6.641179   7.203242   2.833486   3.945106
    29  H    6.231828   1.093980   5.122165   7.589706   5.996603
    30  H    4.631464   1.093441   5.992834   6.012069   4.251658
    31  H    5.974694   1.095036   6.477468   7.281105   5.502756
    32  H    2.163762   7.276664   8.769564   1.082828   3.392653
    33  H    2.164010   4.296827   8.236556   3.392751   1.083124
    34  H    3.400246   8.672078  11.080363   2.152750   3.817555
    35  H    3.401021   6.474972  10.676718   3.818681   2.153118
    36  H    9.607113   7.434172   1.920128  10.451535  10.355454
                   21         22         23         24         25
    21  C    0.000000
    22  C    2.304853   0.000000
    23  H    6.715939   5.876741   0.000000
    24  H    8.401670   7.521689   1.764048   0.000000
    25  H    4.841426   4.038313   2.083148   3.628154   0.000000
    26  H    9.343648   8.728136   3.493270   2.201452   4.737892
    27  H    6.469419   6.997309   6.038412   6.604525   4.946440
    28  H    4.082845   4.889255   6.033107   7.177041   4.285039
    29  H    8.510703   7.187145   3.089219   2.501864   3.863004
    30  H    6.832214   5.416193   2.559111   3.085740   2.451167
    31  H    7.999720   6.494131   2.515068   2.519550   3.505256
    32  H    2.153589   3.816514   6.148154   7.667032   4.376782
    33  H    3.815655   2.153274   4.283327   5.737946   2.443615
    34  H    1.084413   3.274398   7.631146   9.321900   5.819985
    35  H    3.274604   1.084539   6.271573   7.862227   4.593466
    36  H   11.821548  11.740184   7.509505   6.520045   8.111134
                   26         27         28         29         30
    26  H    0.000000
    27  H    5.802706   0.000000
    28  H    7.121466   2.513110   0.000000
    29  H    3.129483   6.642967   7.114809   0.000000
    30  H    4.142042   6.040461   5.918312   1.774720   0.000000
    31  H    4.183707   7.505614   7.485586   1.779210   1.779162
    32  H    8.200362   4.664321   2.469800   8.039706   6.586839
    33  H    6.832512   5.906949   4.412288   5.093306   3.327089
    34  H   10.227569   7.042192   4.632615   9.547809   7.888961
    35  H    9.202192   7.894522   5.866736   7.339067   5.576349
    36  H    4.344669   6.052938   8.391448   6.901176   7.826672
                   31         32         33         34         35
    31  H    0.000000
    32  H    7.864202   0.000000
    33  H    4.616014   4.306512   0.000000
    34  H    9.030178   2.484654   4.899474   0.000000
    35  H    6.511618   4.900460   2.484592   4.141838   0.000000
    36  H    8.345315  10.142142   9.965854  12.542087  12.404387
                   36
    36  H    0.000000
 Stoichiometry    C17H14N2O3
 Framework group  C1[X(C17H14N2O3)]
 Deg. of freedom   102
 Full point group                 C1      NOp   1
 Largest Abelian subgroup         C1      NOp   1
 Largest concise Abelian subgroup C1      NOp   1
                         Standard orientation:                         
 ---------------------------------------------------------------------
 Center     Atomic      Atomic             Coordinates (Angstroms)
 Number     Number       Type             X           Y           Z
 ---------------------------------------------------------------------
      1          8           0       -2.773543   -2.470399    0.401518
      2          8           0       -5.249053   -1.361165    0.146833
      3          8           0       -5.382452    0.870471   -0.313403
      4          7           0       -1.326246    1.337896   -0.367343
      5          7           0        6.113746    0.097289   -0.081009
      6          6           0       -0.414629    0.290338   -0.140657
      7          6           0       -0.922043   -1.001149    0.113151
      8          6           0       -0.867905    2.737699   -0.594109
      9          6           0        0.976419    0.489469   -0.172918
     10          6           0        1.856231   -0.573986    0.035999
     11          6           0       -2.660011    1.080678   -0.325245
     12          6           0       -2.383403   -1.310835    0.167892
     13          6           0       -3.221295   -0.141281   -0.078944
     14          6           0       -0.028691   -2.058502    0.322405
     15          6           0        1.340170   -1.862428    0.284447
     16          6           0        3.323758   -0.341775   -0.002192
     17          6           0       -0.512701    3.449914    0.724292
     18          6           0       -4.691869   -0.133714   -0.098848
     19          6           0        4.183910   -1.240219   -0.653306
     20          6           0        3.902362    0.780738    0.611382
     21          6           0        5.553205   -0.982870   -0.667674
     22          6           0        5.282914    0.957128    0.547109
     23          1           0       -0.017794    2.717448   -1.280416
     24          1           0       -1.687002    3.257785   -1.096989
     25          1           0        1.386762    1.466642   -0.384752
     26          1           0       -3.328320    1.914763   -0.506432
     27          1           0       -0.468197   -3.028638    0.520154
     28          1           0        2.020674   -2.683870    0.471382
     29          1           0       -1.390298    3.494118    1.375952
     30          1           0        0.284403    2.919816    1.252719
     31          1           0       -0.178115    4.471367    0.515031
     32          1           0        3.785833   -2.111356   -1.158451
     33          1           0        3.285899    1.487839    1.152805
     34          1           0        6.229721   -1.663348   -1.172874
     35          1           0        5.745396    1.815146    1.022651
     36          1           0       -6.239607   -1.250493    0.111398
 ---------------------------------------------------------------------
 Rotational constants (GHZ):      0.6803002      0.1381542      0.1176640
 Standard basis: LANL2DZ (5D, 7F)
 There are   226 symmetry adapted cartesian basis functions of A   symmetry.
 There are   226 symmetry adapted basis functions of A   symmetry.
   226 basis functions,   606 primitive gaussians,   226 cartesian basis functions
    77 alpha electrons       77 beta electrons
       nuclear repulsion energy      1653.8721053372 Hartrees.
 NAtoms=   36 NActive=   36 NUniq=   36 SFac= 1.00D+00 NAtFMM=   60 NAOKFM=F Big=F
 Integral buffers will be    131072 words long.
 Raffenetti 2 integral format.
 Two-electron integral symmetry is turned on.
 One-electron integrals computed using PRISM.
 PrsmSu:  requested number of processors reduced to:   9 ShMem   1 Linda.
   1 Symmetry operations used in ECPInt.
 ECPInt:  NShTT=    9591 NPrTT=   75349 LenC2=    8678 LenP2D=   38571.
 LDataN:  DoStor=T MaxTD1= 2 Len=   12
 Number of processors reduced to   9 by ecpmxn.
 NBasis=   226 RedAO= T EigKep=  3.93D-04  NBF=   226
 NBsUse=   226 1.00D-06 EigRej= -1.00D+00 NBFU=   226
 ExpMin= 1.15D-01 ExpMax= 7.82D+03 ExpMxC= 2.73D+02 IAcc=3 IRadAn=         5 AccDes= 0.00D+00
 Harris functional with IExCor= 1009 and IRadAn=       5 diagonalized for initial guess.
 HarFok:  IExCor= 1009 AccDes= 0.00D+00 IRadAn=         5 IDoV= 1 UseB2=F ITyADJ=14
 ICtDFT=  3500011 ScaDFX=  1.000000  1.000000  1.000000  1.000000
 FoFCou: FMM=F IPFlag=           0 FMFlag=      100000 FMFlg1=           0
         NFxFlg=           0 DoJE=T BraDBF=F KetDBF=T FulRan=T
         wScrn=  0.000000 ICntrl=     500 IOpCl=  0 I1Cent=   200000004 NGrid=           0
         NMat0=    1 NMatS0=      1 NMatT0=    0 NMatD0=    1 NMtDS0=    0 NMtDT0=    0
 Petite list used in FoFCou.
 Requested convergence on RMS density matrix=1.00D-08 within 128 cycles.
 Requested convergence on MAX density matrix=1.00D-06.
 Requested convergence on             energy=1.00D-06.
 No special actions if energy rises.
 Integral accuracy reduced to 1.0D-05 until final iterations.
 Initial convergence to 1.0D-05 achieved.  Increase integral accuracy.
 SCF Done:  E(RM06) =  -990.624378411     A.U. after   17 cycles
            NFock= 17  Conv=0.56D-08     -V/T= 2.0048

 **********************************************************************

            Population analysis using the SCF density.

 **********************************************************************

 Orbital symmetries:
       Occupied  (A) (A) (A) (A) (A) (A) (A) (A) (A) (A) (A) (A)
                 (A) (A) (A) (A) (A) (A) (A) (A) (A) (A) (A) (A)
                 (A) (A) (A) (A) (A) (A) (A) (A) (A) (A) (A) (A)
                 (A) (A) (A) (A) (A) (A) (A) (A) (A) (A) (A) (A)
                 (A) (A) (A) (A) (A) (A) (A) (A) (A) (A) (A) (A)
                 (A) (A) (A) (A) (A) (A) (A) (A) (A) (A) (A) (A)
                 (A) (A) (A) (A) (A)
       Virtual   (A) (A) (A) (A) (A) (A) (A) (A) (A) (A) (A) (A)
                 (A) (A) (A) (A) (A) (A) (A) (A) (A) (A) (A) (A)
                 (A) (A) (A) (A) (A) (A) (A) (A) (A) (A) (A) (A)
                 (A) (A) (A) (A) (A) (A) (A) (A) (A) (A) (A) (A)
                 (A) (A) (A) (A) (A) (A) (A) (A) (A) (A) (A) (A)
                 (A) (A) (A) (A) (A) (A) (A) (A) (A) (A) (A) (A)
                 (A) (A) (A) (A) (A) (A) (A) (A) (A) (A) (A) (A)
                 (A) (A) (A) (A) (A) (A) (A) (A) (A) (A) (A) (A)
                 (A) (A) (A) (A) (A) (A) (A) (A) (A) (A) (A) (A)
                 (A) (A) (A) (A) (A) (A) (A) (A) (A) (A) (A) (A)
                 (A) (A) (A) (A) (A) (A) (A) (A) (A) (A) (A) (A)
                 (A) (A) (A) (A) (A) (A) (A) (A) (A) (A) (A) (A)
                 (A) (A) (A) (A) (A)
 The electronic state is 1-A.
 Alpha  occ. eigenvalues --  -19.26544 -19.22068 -19.19540 -14.49156 -14.41666
 Alpha  occ. eigenvalues --  -10.40595 -10.34805 -10.34011 -10.33977 -10.33167
 Alpha  occ. eigenvalues --  -10.30463 -10.30451 -10.30383 -10.30164 -10.28800
 Alpha  occ. eigenvalues --  -10.28318 -10.28231 -10.28094 -10.27854 -10.27804
 Alpha  occ. eigenvalues --  -10.27606 -10.27272  -1.13808  -1.05483  -1.04963
 Alpha  occ. eigenvalues --   -1.03518  -0.97885  -0.90715  -0.85896  -0.85071
 Alpha  occ. eigenvalues --   -0.80979  -0.79516  -0.78976  -0.78559  -0.70806
 Alpha  occ. eigenvalues --   -0.69431  -0.68998  -0.66026  -0.65073  -0.63312
 Alpha  occ. eigenvalues --   -0.62361  -0.58583  -0.56153  -0.55181  -0.53552
 Alpha  occ. eigenvalues --   -0.51700  -0.50692  -0.50194  -0.49899  -0.49206
 Alpha  occ. eigenvalues --   -0.48703  -0.48055  -0.47108  -0.46392  -0.46198
 Alpha  occ. eigenvalues --   -0.45803  -0.45066  -0.43338  -0.42800  -0.42258
 Alpha  occ. eigenvalues --   -0.41792  -0.40345  -0.40308  -0.39751  -0.39241
 Alpha  occ. eigenvalues --   -0.38822  -0.38316  -0.37509  -0.33288  -0.32557
 Alpha  occ. eigenvalues --   -0.29970  -0.29678  -0.29502  -0.27800  -0.26746
 Alpha  occ. eigenvalues --   -0.25196  -0.24893
 Alpha virt. eigenvalues --   -0.07007  -0.06098  -0.02697  -0.02470  -0.00762
 Alpha virt. eigenvalues --    0.02430   0.08245   0.08803   0.09462   0.09902
 Alpha virt. eigenvalues --    0.10965   0.12358   0.12758   0.12863   0.13701
 Alpha virt. eigenvalues --    0.14710   0.15607   0.16566   0.16669   0.17238
 Alpha virt. eigenvalues --    0.17474   0.18291   0.18591   0.19043   0.20213
 Alpha virt. eigenvalues --    0.20425   0.20960   0.21871   0.22211   0.22388
 Alpha virt. eigenvalues --    0.22633   0.23470   0.23856   0.25064   0.25589
 Alpha virt. eigenvalues --    0.26208   0.26725   0.27782   0.28812   0.29246
 Alpha virt. eigenvalues --    0.29501   0.29888   0.30036   0.30844   0.31891
 Alpha virt. eigenvalues --    0.32788   0.33308   0.33730   0.33926   0.34515
 Alpha virt. eigenvalues --    0.34949   0.35862   0.36426   0.36594   0.37175
 Alpha virt. eigenvalues --    0.38188   0.38383   0.39320   0.39424   0.39950
 Alpha virt. eigenvalues --    0.40466   0.41216   0.41527   0.41932   0.42307
 Alpha virt. eigenvalues --    0.42871   0.43790   0.44562   0.45446   0.46286
 Alpha virt. eigenvalues --    0.47006   0.47809   0.48335   0.49019   0.49956
 Alpha virt. eigenvalues --    0.50295   0.50997   0.51702   0.52693   0.55066
 Alpha virt. eigenvalues --    0.55456   0.56309   0.56969   0.58138   0.59271
 Alpha virt. eigenvalues --    0.59946   0.62392   0.63839   0.65020   0.65704
 Alpha virt. eigenvalues --    0.66631   0.66882   0.67799   0.69571   0.70126
 Alpha virt. eigenvalues --    0.70475   0.70950   0.71358   0.72607   0.74970
 Alpha virt. eigenvalues --    0.76120   0.76910   0.80467   0.82214   0.83690
 Alpha virt. eigenvalues --    0.84830   0.87750   0.88492   0.90514   0.91001
 Alpha virt. eigenvalues --    0.92589   0.93334   0.96512   1.00850   1.02553
 Alpha virt. eigenvalues --    1.04570   1.05394   1.06475   1.07181   1.07487
 Alpha virt. eigenvalues --    1.08970   1.10060   1.11077   1.11660   1.13820
 Alpha virt. eigenvalues --    1.15376   1.16128   1.17641   1.20571   1.21342
 Alpha virt. eigenvalues --    1.24028   1.26551   1.28678   1.30121   1.38802
 Alpha virt. eigenvalues --    1.39072   1.40650   1.43599   1.48149   1.48434
 Alpha virt. eigenvalues --    1.52417   1.54835   1.59023   1.63763   1.71212
 Alpha virt. eigenvalues --    1.80737   1.84710   1.97155   2.00455
          Condensed to atoms (all electrons):
               1          2          3          4          5          6
     1  O    7.784407  -0.006536   0.000009   0.000294   0.000000  -0.005077
     2  O   -0.006536   8.081247  -0.083276  -0.000003   0.000000  -0.000227
     3  O    0.000009  -0.083276   7.885011   0.000779   0.000000  -0.000257
     4  N    0.000294  -0.000003   0.000779   6.681457   0.000000   0.206344
     5  N    0.000000   0.000000   0.000000   0.000000   6.222770  -0.000007
     6  C   -0.005077  -0.000227  -0.000257   0.206344  -0.000007   5.217966
     7  C   -0.113120  -0.000978  -0.000218  -0.037188  -0.000001   0.309356
     8  C    0.000004   0.000002   0.000233   0.240435   0.000000  -0.052199
     9  C   -0.000309  -0.000002  -0.000009  -0.030674  -0.000269   0.385429
    10  C   -0.000008   0.000000   0.000000  -0.005400  -0.003895  -0.059914
    11  C    0.001620  -0.005140   0.004132   0.397585   0.000000  -0.130745
    12  C    0.672260   0.002538  -0.003722  -0.005135   0.000000  -0.056178
    13  C   -0.068969  -0.031975  -0.060350  -0.057960   0.000000   0.017896
    14  C    0.007300   0.000125   0.000014   0.008863  -0.000003  -0.053182
    15  C    0.000773   0.000001   0.000000   0.002137  -0.000034  -0.049224
    16  C   -0.000002   0.000000   0.000000   0.000090  -0.059967  -0.003701
    17  C    0.000000   0.000000   0.000002  -0.064930   0.000000  -0.013440
    18  C   -0.007570   0.251352   0.587122   0.008963   0.000000  -0.002185
    19  C    0.000000   0.000000   0.000000   0.000000  -0.030020  -0.000969
    20  C    0.000000   0.000000   0.000000  -0.000097  -0.030775   0.003022
    21  C    0.000000   0.000000   0.000000   0.000000   0.510326  -0.000005
    22  C    0.000000   0.000000   0.000000   0.000001   0.511636  -0.000352
    23  H    0.000000   0.000000   0.000000  -0.040714   0.000000  -0.012731
    24  H    0.000000   0.000000   0.000001  -0.040043   0.000000   0.002360
    25  H    0.000001   0.000000   0.000000  -0.001842  -0.000008  -0.040065
    26  H   -0.000057   0.000352   0.013207  -0.037650   0.000000  -0.003860
    27  H    0.012238   0.000000   0.000000  -0.000063   0.000000   0.002070
    28  H    0.000002   0.000000   0.000000   0.000008  -0.000008   0.000421
    29  H    0.000000   0.000000   0.000001  -0.003181   0.000000  -0.000080
    30  H    0.000000   0.000000   0.000000  -0.003039   0.000000   0.001743
    31  H    0.000000   0.000000   0.000000   0.004357   0.000000   0.000474
    32  H    0.000000   0.000000   0.000000   0.000000   0.003743  -0.000004
    33  H    0.000000   0.000000   0.000000   0.000023   0.003796  -0.000128
    34  H    0.000000   0.000000   0.000000   0.000000  -0.035568   0.000000
    35  H    0.000000   0.000000   0.000000   0.000000  -0.035466  -0.000001
    36  H    0.000377   0.245473   0.003153   0.000001   0.000000   0.000004
               7          8          9         10         11         12
     1  O   -0.113120   0.000004  -0.000309  -0.000008   0.001620   0.672260
     2  O   -0.000978   0.000002  -0.000002   0.000000  -0.005140   0.002538
     3  O   -0.000218   0.000233  -0.000009   0.000000   0.004132  -0.003722
     4  N   -0.037188   0.240435  -0.030674  -0.005400   0.397585  -0.005135
     5  N   -0.000001   0.000000  -0.000269  -0.003895   0.000000   0.000000
     6  C    0.309356  -0.052199   0.385429  -0.059914  -0.130745  -0.056178
     7  C    5.556058   0.002232  -0.086812  -0.079524   0.013636   0.118587
     8  C    0.002232   5.260913   0.025483   0.002407  -0.055564   0.001229
     9  C   -0.086812   0.025483   5.692702   0.449321   0.010271  -0.003883
    10  C   -0.079524   0.002407   0.449321   4.867782   0.000230  -0.001275
    11  C    0.013636  -0.055564   0.010271   0.000230   5.526807  -0.075721
    12  C    0.118587   0.001229  -0.003883  -0.001275  -0.075721   5.222232
    13  C   -0.157284   0.004549  -0.006270  -0.000125   0.310966   0.037405
    14  C    0.433269  -0.000229  -0.066331  -0.068474   0.003825  -0.034074
    15  C   -0.059627   0.000268  -0.141506   0.433101   0.000740  -0.012796
    16  C   -0.003392  -0.000219  -0.051611   0.219492   0.000088  -0.000308
    17  C   -0.001506   0.276531   0.003571   0.000795  -0.004621  -0.000007
    18  C   -0.022887   0.000389  -0.000460  -0.000027  -0.029561  -0.032572
    19  C    0.000106   0.000010  -0.029223  -0.061646  -0.000001   0.000002
    20  C    0.000222   0.000094   0.047995  -0.066012  -0.000003  -0.000014
    21  C   -0.000026  -0.000001  -0.000026  -0.007961   0.000000   0.000000
    22  C   -0.000029  -0.000012  -0.003674  -0.007410   0.000000   0.000000
    23  H   -0.001661   0.369064   0.009515   0.002060   0.002580  -0.000039
    24  H    0.000195   0.364123  -0.000426  -0.000012   0.003157  -0.000053
    25  H   -0.005637   0.011122   0.304677  -0.012969   0.000949  -0.000086
    26  H   -0.000629  -0.000481  -0.000077  -0.000013   0.311498   0.003966
    27  H   -0.023612   0.000005   0.000679  -0.000188  -0.000144   0.005006
    28  H   -0.000196  -0.000003   0.006745  -0.023527   0.000004   0.000348
    29  H   -0.000098  -0.034899  -0.000065   0.000010   0.003367   0.000012
    30  H    0.000015  -0.037751   0.005058   0.000501  -0.000028   0.000010
    31  H    0.000017  -0.027921  -0.000581  -0.000024  -0.000074   0.000000
    32  H   -0.000024   0.000000   0.000863  -0.009132   0.000000   0.000000
    33  H   -0.000034  -0.000118  -0.000159  -0.010012   0.000003  -0.000001
    34  H    0.000000   0.000000  -0.000012  -0.000218   0.000000   0.000000
    35  H    0.000000   0.000000  -0.000051  -0.000221   0.000000   0.000000
    36  H    0.000064   0.000000   0.000000   0.000000  -0.000424   0.001820
              13         14         15         16         17         18
     1  O   -0.068969   0.007300   0.000773  -0.000002   0.000000  -0.007570
     2  O   -0.031975   0.000125   0.000001   0.000000   0.000000   0.251352
     3  O   -0.060350   0.000014   0.000000   0.000000   0.000002   0.587122
     4  N   -0.057960   0.008863   0.002137   0.000090  -0.064930   0.008963
     5  N    0.000000  -0.000003  -0.000034  -0.059967   0.000000   0.000000
     6  C    0.017896  -0.053182  -0.049224  -0.003701  -0.013440  -0.002185
     7  C   -0.157284   0.433269  -0.059627  -0.003392  -0.001506  -0.022887
     8  C    0.004549  -0.000229   0.000268  -0.000219   0.276531   0.000389
     9  C   -0.006270  -0.066331  -0.141506  -0.051611   0.003571  -0.000460
    10  C   -0.000125  -0.068474   0.433101   0.219492   0.000795  -0.000027
    11  C    0.310966   0.003825   0.000740   0.000088  -0.004621  -0.029561
    12  C    0.037405  -0.034074  -0.012796  -0.000308  -0.000007  -0.032572
    13  C    5.868345  -0.019736  -0.000811  -0.000043  -0.000575   0.083087
    14  C   -0.019736   5.398762   0.469646   0.006563   0.000007   0.000804
    15  C   -0.000811   0.469646   5.506217  -0.020917  -0.000004   0.000023
    16  C   -0.000043   0.006563  -0.020917   4.809637   0.000163   0.000000
    17  C   -0.000575   0.000007  -0.000004   0.000163   5.399703   0.000001
    18  C    0.083087   0.000804   0.000023   0.000000   0.000001   4.993932
    19  C    0.000000   0.002652   0.047241   0.492180   0.000002   0.000000
    20  C    0.000000  -0.000517  -0.022295   0.488964  -0.000054   0.000000
    21  C    0.000000  -0.000191  -0.001619  -0.090108   0.000000   0.000000
    22  C    0.000000   0.000029   0.000816  -0.092793   0.000006   0.000000
    23  H    0.000072  -0.000070   0.000050   0.000013  -0.042987   0.000003
    24  H    0.000165   0.000014  -0.000001  -0.000001  -0.039435   0.000027
    25  H    0.000010   0.000411   0.008315  -0.006755  -0.006042   0.000000
    26  H   -0.012622   0.000030   0.000004   0.000000  -0.000336  -0.005897
    27  H    0.002813   0.321536  -0.036849   0.000027   0.000000  -0.000004
    28  H   -0.000006  -0.028217   0.321091  -0.006151   0.000000   0.000000
    29  H    0.000075  -0.000001   0.000000   0.000000   0.375867   0.000011
    30  H   -0.000023   0.000011   0.000012   0.000091   0.371398   0.000000
    31  H   -0.000001   0.000000   0.000000  -0.000002   0.367685   0.000000
    32  H    0.000000  -0.000304  -0.000725  -0.017436   0.000000   0.000000
    33  H    0.000000  -0.000030   0.000735  -0.017531   0.000127   0.000000
    34  H    0.000000  -0.000001  -0.000039  -0.002057   0.000000   0.000000
    35  H    0.000000   0.000000  -0.000005  -0.002042   0.000000   0.000000
    36  H    0.005100  -0.000003   0.000000   0.000000   0.000000  -0.028594
              19         20         21         22         23         24
     1  O    0.000000   0.000000   0.000000   0.000000   0.000000   0.000000
     2  O    0.000000   0.000000   0.000000   0.000000   0.000000   0.000000
     3  O    0.000000   0.000000   0.000000   0.000000   0.000000   0.000001
     4  N    0.000000  -0.000097   0.000000   0.000001  -0.040714  -0.040043
     5  N   -0.030020  -0.030775   0.510326   0.511636   0.000000   0.000000
     6  C   -0.000969   0.003022  -0.000005  -0.000352  -0.012731   0.002360
     7  C    0.000106   0.000222  -0.000026  -0.000029  -0.001661   0.000195
     8  C    0.000010   0.000094  -0.000001  -0.000012   0.369064   0.364123
     9  C   -0.029223   0.047995  -0.000026  -0.003674   0.009515  -0.000426
    10  C   -0.061646  -0.066012  -0.007961  -0.007410   0.002060  -0.000012
    11  C   -0.000001  -0.000003   0.000000   0.000000   0.002580   0.003157
    12  C    0.000002  -0.000014   0.000000   0.000000  -0.000039  -0.000053
    13  C    0.000000   0.000000   0.000000   0.000000   0.000072   0.000165
    14  C    0.002652  -0.000517  -0.000191   0.000029  -0.000070   0.000014
    15  C    0.047241  -0.022295  -0.001619   0.000816   0.000050  -0.000001
    16  C    0.492180   0.488964  -0.090108  -0.092793   0.000013  -0.000001
    17  C    0.000002  -0.000054   0.000000   0.000006  -0.042987  -0.039435
    18  C    0.000000   0.000000   0.000000   0.000000   0.000003   0.000027
    19  C    5.396896  -0.067528   0.362291  -0.035474   0.000000   0.000000
    20  C   -0.067528   5.396708  -0.035964   0.361827   0.000009   0.000000
    21  C    0.362291  -0.035964   5.458046  -0.211785   0.000000   0.000000
    22  C   -0.035474   0.361827  -0.211785   5.461712   0.000001   0.000000
    23  H    0.000000   0.000009   0.000000   0.000001   0.509416  -0.027665
    24  H    0.000000   0.000000   0.000000   0.000000  -0.027665   0.507699
    25  H    0.000816   0.000543  -0.000030  -0.000151   0.004134   0.000106
    26  H    0.000000   0.000000   0.000000   0.000000   0.000216   0.003138
    27  H   -0.000019  -0.000004   0.000000   0.000000   0.000000   0.000000
    28  H    0.000088   0.000735  -0.000131  -0.000028   0.000000   0.000000
    29  H    0.000000   0.000000   0.000000   0.000000   0.003109  -0.004071
    30  H    0.000003   0.000041   0.000000  -0.000009  -0.003773   0.003113
    31  H    0.000000   0.000004   0.000000   0.000000  -0.001033  -0.000902
    32  H    0.311257   0.007571  -0.020929   0.001917   0.000000   0.000000
    33  H    0.007723   0.306954   0.001931  -0.020829   0.000009   0.000000
    34  H   -0.067381  -0.001296   0.344931   0.009718   0.000000   0.000000
    35  H   -0.001376  -0.067816   0.009857   0.344315   0.000000   0.000000
    36  H    0.000000   0.000000   0.000000   0.000000   0.000000   0.000000
              25         26         27         28         29         30
     1  O    0.000001  -0.000057   0.012238   0.000002   0.000000   0.000000
     2  O    0.000000   0.000352   0.000000   0.000000   0.000000   0.000000
     3  O    0.000000   0.013207   0.000000   0.000000   0.000001   0.000000
     4  N   -0.001842  -0.037650  -0.000063   0.000008  -0.003181  -0.003039
     5  N   -0.000008   0.000000   0.000000  -0.000008   0.000000   0.000000
     6  C   -0.040065  -0.003860   0.002070   0.000421  -0.000080   0.001743
     7  C   -0.005637  -0.000629  -0.023612  -0.000196  -0.000098   0.000015
     8  C    0.011122  -0.000481   0.000005  -0.000003  -0.034899  -0.037751
     9  C    0.304677  -0.000077   0.000679   0.006745  -0.000065   0.005058
    10  C   -0.012969  -0.000013  -0.000188  -0.023527   0.000010   0.000501
    11  C    0.000949   0.311498  -0.000144   0.000004   0.003367  -0.000028
    12  C   -0.000086   0.003966   0.005006   0.000348   0.000012   0.000010
    13  C    0.000010  -0.012622   0.002813  -0.000006   0.000075  -0.000023
    14  C    0.000411   0.000030   0.321536  -0.028217  -0.000001   0.000011
    15  C    0.008315   0.000004  -0.036849   0.321091   0.000000   0.000012
    16  C   -0.006755   0.000000   0.000027  -0.006151   0.000000   0.000091
    17  C   -0.006042  -0.000336   0.000000   0.000000   0.375867   0.371398
    18  C    0.000000  -0.005897  -0.000004   0.000000   0.000011   0.000000
    19  C    0.000816   0.000000  -0.000019   0.000088   0.000000   0.000003
    20  C    0.000543   0.000000  -0.000004   0.000735   0.000000   0.000041
    21  C   -0.000030   0.000000   0.000000  -0.000131   0.000000   0.000000
    22  C   -0.000151   0.000000   0.000000  -0.000028   0.000000  -0.000009
    23  H    0.004134   0.000216   0.000000   0.000000   0.003109  -0.003773
    24  H    0.000106   0.003138   0.000000   0.000000  -0.004071   0.003113
    25  H    0.496987   0.000007   0.000007  -0.000085   0.000081  -0.000240
    26  H    0.000007   0.450832   0.000000   0.000000  -0.000061   0.000009
    27  H    0.000007   0.000000   0.440206  -0.000787   0.000000   0.000000
    28  H   -0.000085   0.000000  -0.000787   0.489168   0.000000   0.000000
    29  H    0.000081  -0.000061   0.000000   0.000000   0.470029  -0.020702
    30  H   -0.000240   0.000009   0.000000   0.000000  -0.020702   0.478300
    31  H    0.000132   0.000003   0.000000   0.000000  -0.018855  -0.019525
    32  H   -0.000002   0.000000   0.000010  -0.000583   0.000000   0.000000
    33  H   -0.000305   0.000000   0.000000  -0.000005   0.000001   0.000019
    34  H    0.000000   0.000000   0.000000   0.000010   0.000000   0.000000
    35  H    0.000013   0.000000   0.000000   0.000000   0.000000   0.000000
    36  H    0.000000   0.000001   0.000000   0.000000   0.000000   0.000000
              31         32         33         34         35         36
     1  O    0.000000   0.000000   0.000000   0.000000   0.000000   0.000377
     2  O    0.000000   0.000000   0.000000   0.000000   0.000000   0.245473
     3  O    0.000000   0.000000   0.000000   0.000000   0.000000   0.003153
     4  N    0.004357   0.000000   0.000023   0.000000   0.000000   0.000001
     5  N    0.000000   0.003743   0.003796  -0.035568  -0.035466   0.000000
     6  C    0.000474  -0.000004  -0.000128   0.000000  -0.000001   0.000004
     7  C    0.000017  -0.000024  -0.000034   0.000000   0.000000   0.000064
     8  C   -0.027921   0.000000  -0.000118   0.000000   0.000000   0.000000
     9  C   -0.000581   0.000863  -0.000159  -0.000012  -0.000051   0.000000
    10  C   -0.000024  -0.009132  -0.010012  -0.000218  -0.000221   0.000000
    11  C   -0.000074   0.000000   0.000003   0.000000   0.000000  -0.000424
    12  C    0.000000   0.000000  -0.000001   0.000000   0.000000   0.001820
    13  C   -0.000001   0.000000   0.000000   0.000000   0.000000   0.005100
    14  C    0.000000  -0.000304  -0.000030  -0.000001   0.000000  -0.000003
    15  C    0.000000  -0.000725   0.000735  -0.000039  -0.000005   0.000000
    16  C   -0.000002  -0.017436  -0.017531  -0.002057  -0.002042   0.000000
    17  C    0.367685   0.000000   0.000127   0.000000   0.000000   0.000000
    18  C    0.000000   0.000000   0.000000   0.000000   0.000000  -0.028594
    19  C    0.000000   0.311257   0.007723  -0.067381  -0.001376   0.000000
    20  C    0.000004   0.007571   0.306954  -0.001296  -0.067816   0.000000
    21  C    0.000000  -0.020929   0.001931   0.344931   0.009857   0.000000
    22  C    0.000000   0.001917  -0.020829   0.009718   0.344315   0.000000
    23  H   -0.001033   0.000000   0.000009   0.000000   0.000000   0.000000
    24  H   -0.000902   0.000000   0.000000   0.000000   0.000000   0.000000
    25  H    0.000132  -0.000002  -0.000305   0.000000   0.000013   0.000000
    26  H    0.000003   0.000000   0.000000   0.000000   0.000000   0.000001
    27  H    0.000000   0.000010   0.000000   0.000000   0.000000   0.000000
    28  H    0.000000  -0.000583  -0.000005   0.000010   0.000000   0.000000
    29  H   -0.018855   0.000000   0.000001   0.000000   0.000000   0.000000
    30  H   -0.019525   0.000000   0.000019   0.000000   0.000000   0.000000
    31  H    0.470676   0.000000  -0.000001   0.000000   0.000000   0.000000
    32  H    0.000000   0.487002  -0.000065   0.003786   0.000011   0.000000
    33  H   -0.000001  -0.000065   0.500563   0.000012   0.003968   0.000000
    34  H    0.000000   0.003786   0.000012   0.516855   0.000072   0.000000
    35  H    0.000000   0.000011   0.003968   0.000072   0.519927   0.000000
    36  H    0.000000   0.000000   0.000000   0.000000   0.000000   0.367377
 Mulliken charges:
               1
     1  O   -0.277638
     2  O   -0.452951
     3  O   -0.345832
     4  N   -0.223419
     5  N   -0.056251
     6  C    0.337445
     7  C    0.160726
     8  C   -0.349697
     9  C   -0.519877
    10  C    0.442289
    11  C   -0.289432
    12  C    0.160452
    13  C    0.086266
    14  C   -0.382500
    15  C   -0.444719
    16  C    0.357728
    17  C   -0.621920
    18  C    0.204043
    19  C   -0.327631
    20  C   -0.322317
    21  C   -0.318606
    22  C   -0.319434
    23  H    0.230422
    24  H    0.228509
    25  H    0.245906
    26  H    0.278420
    27  H    0.277072
    28  H    0.241105
    29  H    0.229451
    30  H    0.224767
    31  H    0.225570
    32  H    0.233044
    33  H    0.223356
    34  H    0.231187
    35  H    0.228815
    36  H    0.405650
 Sum of Mulliken charges =   0.00000
 Mulliken charges with hydrogens summed into heavy atoms:
               1
     1  O   -0.277638
     2  O   -0.047301
     3  O   -0.345832
     4  N   -0.223419
     5  N   -0.056251
     6  C    0.337445
     7  C    0.160726
     8  C    0.109234
     9  C   -0.273972
    10  C    0.442289
    11  C   -0.011011
    12  C    0.160452
    13  C    0.086266
    14  C   -0.105427
    15  C   -0.203614
    16  C    0.357728
    17  C    0.057869
    18  C    0.204043
    19  C   -0.094588
    20  C   -0.098961
    21  C   -0.087419
    22  C   -0.090619
 Electronic spatial extent (au):  <R**2>=           8537.5344
 Charge=              0.0000 electrons
 Dipole moment (field-independent basis, Debye):
    X=              1.9880    Y=              4.6191    Z=             -0.6659  Tot=              5.0726
 Quadrupole moment (field-independent basis, Debye-Ang):
   XX=           -160.4882   YY=           -117.9702   ZZ=           -126.4655
   XY=             -8.9584   XZ=              0.3109   YZ=              3.7779
 Traceless Quadrupole moment (field-independent basis, Debye-Ang):
   XX=            -25.5135   YY=             17.0044   ZZ=              8.5091
   XY=             -8.9584   XZ=              0.3109   YZ=              3.7779
 Octapole moment (field-independent basis, Debye-Ang**2):
  XXX=           -227.6645  YYY=             53.9506  ZZZ=             -0.6593  XYY=             44.8790
  XXY=            -51.4068  XXZ=              4.9474  XZZ=            -13.6288  YZZ=              4.3476
  YYZ=             -7.4687  XYZ=             11.4431
 Hexadecapole moment (field-independent basis, Debye-Ang**3):
 XXXX=         -10381.7756 YYYY=          -1837.2478 ZZZZ=           -286.0903 XXXY=            274.1287
 XXXZ=           -101.7194 YYYX=           -120.7773 YYYZ=             -0.7320 ZZZX=             -4.1960
 ZZZY=              0.3851 XXYY=          -1832.0003 XXZZ=          -1539.1244 YYZZ=           -360.5172
 XXYZ=            141.9062 YYXZ=             18.1143 ZZXY=              2.5911
 N-N= 1.653872105337D+03 E-N=-5.615627852644D+03  KE= 9.858488173471D+02
 PrsmSu:  requested number of processors reduced to:   9 ShMem   1 Linda.
   1 Symmetry operations used in ECPInt.
 ECPInt:  NShTT=    9591 NPrTT=   75349 LenC2=    8678 LenP2D=   38571.
 LDataN:  DoStor=T MaxTD1= 3 Len=   28
 Number of processors reduced to   9 by ecpmxn.
 Calling FoFJK, ICntrl=      2127 FMM=F ISym2X=0 I1Cent= 0 IOpClX= 0 NMat=1 NMatS=1 NMatT=0.
 CoulSu:  requested number of processors reduced to:  19 ShMem   1 Linda.
 ***** Axes restored to original set *****
 -------------------------------------------------------------------
 Center     Atomic                   Forces (Hartrees/Bohr)
 Number     Number              X              Y              Z
 -------------------------------------------------------------------
      1        8          -0.002573548   -0.007558986    0.001583704
      2        8          -0.016664789    0.009328405   -0.002131802
      3        8          -0.008415251    0.007671470   -0.001675995
      4        7           0.001637322    0.006848613   -0.001219672
      5        7           0.001472088    0.000199715   -0.000084619
      6        6          -0.000441135   -0.000990347    0.000567447
      7        6          -0.004877607   -0.001383929    0.000118767
      8        6          -0.001364040   -0.005265213    0.006738666
      9        6          -0.000748536    0.001416908    0.000714960
     10        6           0.005340331    0.001043289   -0.000139726
     11        6           0.007821675    0.007961734   -0.001297355
     12        6           0.006703064    0.007488559   -0.001478473
     13        6          -0.007398875   -0.006323383    0.001164246
     14        6          -0.000786774   -0.002139780    0.000367224
     15        6           0.003548184    0.000371881   -0.000825052
     16        6          -0.006279058   -0.001238138    0.000143477
     17        6          -0.001853411   -0.002924551   -0.007057234
     18        6           0.009496564   -0.014553917    0.003113645
     19        6          -0.004648644   -0.000908402    0.000918364
     20        6          -0.004481725   -0.000675082   -0.000777538
     21        6           0.004382369    0.000049989   -0.000644105
     22        6           0.004144053    0.001395417    0.000486337
     23        1           0.000640600    0.000607280   -0.001245400
     24        1           0.000237127    0.001093025   -0.001019017
     25        1           0.001820020    0.003746896   -0.000879086
     26        1          -0.001108870    0.003016304   -0.000330830
     27        1          -0.000346122   -0.002329416    0.000434366
     28        1           0.001593670   -0.001862279    0.000372743
     29        1          -0.000088463    0.000226276    0.000727757
     30        1           0.000769290    0.000103891    0.001258595
     31        1          -0.000039786   -0.000359903    0.000850889
     32        1          -0.000486010   -0.001977705   -0.001081805
     33        1          -0.001124144    0.001933869    0.001327120
     34        1           0.001783201   -0.000114177   -0.000223175
     35        1           0.001705200    0.000664392    0.000138442
     36        1           0.010632030   -0.004562703    0.001084138
 -------------------------------------------------------------------
 Cartesian Forces:  Max     0.016664789 RMS     0.004083382

 GradGradGradGradGradGradGradGradGradGradGradGradGradGradGradGradGradGrad
 Berny optimization.
 FormGI is forming the generalized inverse of G from B-inverse, IUseBI=4.
 Internal  Forces:  Max     0.012511291 RMS     0.002415719
 Search for a local minimum.
 Step number   1 out of a maximum of  199
 All quantities printed in internal units (Hartrees-Bohrs-Radians)
 Mixed Optimization -- RFO/linear search
 Second derivative matrix not updated -- first step.
 ITU=  0
     Eigenvalues ---    0.00237   0.00497   0.00947   0.01071   0.01153
     Eigenvalues ---    0.01227   0.01444   0.01453   0.01605   0.01663
     Eigenvalues ---    0.01696   0.01730   0.01833   0.01894   0.02040
     Eigenvalues ---    0.02057   0.02079   0.02086   0.02102   0.02116
     Eigenvalues ---    0.02131   0.02161   0.02169   0.02192   0.02218
     Eigenvalues ---    0.02222   0.02234   0.02299   0.02385   0.04065
     Eigenvalues ---    0.05216   0.05515   0.05626   0.09349   0.12745
     Eigenvalues ---    0.15993   0.15993   0.15995   0.15995   0.16000
     Eigenvalues ---    0.16000   0.16000   0.16000   0.16000   0.16000
     Eigenvalues ---    0.16000   0.16000   0.21957   0.22000   0.22431
     Eigenvalues ---    0.22823   0.23428   0.23511   0.23881   0.24619
     Eigenvalues ---    0.24970   0.24993   0.24999   0.25000   0.25000
     Eigenvalues ---    0.25000   0.25000   0.25000   0.25000   0.28519
     Eigenvalues ---    0.32276   0.33418   0.33861   0.34237   0.34357
     Eigenvalues ---    0.34418   0.34487   0.34496   0.35451   0.35466
     Eigenvalues ---    0.35509   0.35604   0.35620   0.35639   0.35653
     Eigenvalues ---    0.35655   0.35898   0.35993   0.39392   0.41753
     Eigenvalues ---    0.42079   0.43002   0.43201   0.43704   0.44885
     Eigenvalues ---    0.45474   0.46014   0.46747   0.47708   0.48158
     Eigenvalues ---    0.49797   0.50938   0.52063   0.52915   0.54120
     Eigenvalues ---    0.84905   0.88044
 RFO step:  Lambda=-3.10424822D-03 EMin= 2.36818604D-03
 Linear search not attempted -- first point.
 Iteration  1 RMS(Cart)=  0.05327817 RMS(Int)=  0.00092202
 Iteration  2 RMS(Cart)=  0.00156112 RMS(Int)=  0.00001246
 Iteration  3 RMS(Cart)=  0.00000125 RMS(Int)=  0.00001244
 Iteration  4 RMS(Cart)=  0.00000000 RMS(Int)=  0.00001244
 Variable       Old X    -DE/DX   Delta X   Delta X   Delta X     New X
                                 (Linear)    (Quad)   (Total)
    R1        2.35374   0.00814   0.00000   0.00955   0.00955   2.36329
    R2        2.58930  -0.00201   0.00000  -0.00393  -0.00393   2.58538
    R3        1.88471  -0.01110   0.00000  -0.02291  -0.02291   1.86181
    R4        2.33848   0.01122   0.00000   0.01269   0.01269   2.35117
    R5        2.65895   0.00047   0.00000   0.00051   0.00050   2.65945
    R6        2.81623  -0.00667   0.00000  -0.01979  -0.01979   2.79644
    R7        2.56812  -0.00030   0.00000  -0.00032  -0.00032   2.56781
    R8        2.55297   0.00110   0.00000   0.00193   0.00193   2.55489
    R9        2.55228   0.00116   0.00000   0.00203   0.00203   2.55431
   R10        2.66567   0.00329   0.00000   0.00650   0.00649   2.67216
   R11        2.65620   0.00263   0.00000   0.00546   0.00546   2.66166
   R12        2.82479   0.00127   0.00000   0.00340   0.00340   2.82819
   R13        2.64552   0.00571   0.00000   0.01269   0.01270   2.65822
   R14        2.91018  -0.00525   0.00000  -0.01821  -0.01821   2.89197
   R15        2.06501   0.00127   0.00000   0.00365   0.00365   2.06866
   R16        2.06517   0.00081   0.00000   0.00233   0.00233   2.06749
   R17        2.63795   0.00231   0.00000   0.00469   0.00469   2.64264
   R18        2.04241   0.00425   0.00000   0.01174   0.01174   2.05415
   R19        2.66453   0.00244   0.00000   0.00563   0.00563   2.67016
   R20        2.80865  -0.00361   0.00000  -0.01056  -0.01056   2.79810
   R21        2.58339   0.01251   0.00000   0.02484   0.02485   2.60824
   R22        2.04856   0.00306   0.00000   0.00855   0.00855   2.05710
   R23        2.75851   0.00523   0.00000   0.01473   0.01475   2.77326
   R24        2.77927   0.00494   0.00000   0.01373   0.01373   2.79300
   R25        2.61416   0.00588   0.00000   0.01239   0.01240   2.62655
   R26        2.04705   0.00231   0.00000   0.00642   0.00642   2.05347
   R27        2.04649   0.00248   0.00000   0.00689   0.00689   2.05339
   R28        2.65304   0.00267   0.00000   0.00597   0.00597   2.65901
   R29        2.65323   0.00287   0.00000   0.00644   0.00644   2.65966
   R30        2.06732   0.00051   0.00000   0.00148   0.00148   2.06880
   R31        2.06630   0.00112   0.00000   0.00323   0.00323   2.06953
   R32        2.06932  -0.00051   0.00000  -0.00147  -0.00147   2.06784
   R33        2.63304   0.00682   0.00000   0.01447   0.01447   2.64751
   R34        2.04625   0.00228   0.00000   0.00634   0.00634   2.05258
   R35        2.63288   0.00681   0.00000   0.01447   0.01447   2.64735
   R36        2.04681   0.00256   0.00000   0.00713   0.00713   2.05394
   R37        2.04924   0.00129   0.00000   0.00361   0.00361   2.05285
   R38        2.04948   0.00131   0.00000   0.00366   0.00366   2.05314
    A1        1.87350   0.00644   0.00000   0.03951   0.03951   1.91300
    A2        2.12299  -0.00182   0.00000  -0.00706  -0.00708   2.11591
    A3        2.08284   0.00141   0.00000   0.00480   0.00475   2.08759
    A4        2.07640   0.00039   0.00000   0.00168   0.00166   2.07806
    A5        2.04399   0.00066   0.00000   0.00221   0.00221   2.04620
    A6        2.06868   0.00133   0.00000   0.00321   0.00319   2.07187
    A7        2.13177  -0.00369   0.00000  -0.01266  -0.01265   2.11912
    A8        2.08268   0.00236   0.00000   0.00945   0.00947   2.09215
    A9        2.15068  -0.00079   0.00000  -0.00519  -0.00520   2.14548
   A10        2.08156  -0.00203   0.00000  -0.00702  -0.00701   2.07455
   A11        2.05093   0.00282   0.00000   0.01221   0.01222   2.06315
   A12        1.95527  -0.00181   0.00000  -0.00661  -0.00660   1.94866
   A13        1.89380   0.00074   0.00000   0.00435   0.00435   1.89815
   A14        1.86138   0.00115   0.00000   0.00940   0.00940   1.87078
   A15        1.94638   0.00054   0.00000   0.00109   0.00110   1.94747
   A16        1.92487   0.00022   0.00000   0.00023   0.00025   1.92512
   A17        1.87853  -0.00077   0.00000  -0.00817  -0.00819   1.87034
   A18        2.10875  -0.00060   0.00000  -0.00432  -0.00433   2.10442
   A19        2.10403   0.00053   0.00000   0.00357   0.00358   2.10761
   A20        2.07011   0.00007   0.00000   0.00077   0.00077   2.07088
   A21        2.08499   0.00049   0.00000   0.00134   0.00133   2.08632
   A22        2.09375   0.00008   0.00000   0.00060   0.00061   2.09436
   A23        2.10444  -0.00057   0.00000  -0.00194  -0.00193   2.10251
   A24        2.18672  -0.00039   0.00000   0.00029   0.00030   2.18702
   A25        2.04232  -0.00082   0.00000  -0.00638  -0.00639   2.03593
   A26        2.05414   0.00122   0.00000   0.00610   0.00610   2.06024
   A27        2.10129  -0.00112   0.00000  -0.00469  -0.00471   2.09658
   A28        2.21158  -0.00119   0.00000  -0.00495  -0.00497   2.20661
   A29        1.97031   0.00231   0.00000   0.00966   0.00966   1.97997
   A30        2.10709  -0.00387   0.00000  -0.01282  -0.01280   2.09429
   A31        1.98613   0.00150   0.00000   0.00469   0.00468   1.99081
   A32        2.18996   0.00237   0.00000   0.00814   0.00813   2.19809
   A33        2.11799  -0.00046   0.00000  -0.00116  -0.00116   2.11683
   A34        2.03174   0.00089   0.00000   0.00461   0.00461   2.03634
   A35        2.13344  -0.00043   0.00000  -0.00345  -0.00346   2.12998
   A36        2.09038   0.00024   0.00000   0.00172   0.00171   2.09209
   A37        2.08696  -0.00016   0.00000  -0.00111  -0.00110   2.08586
   A38        2.10545  -0.00008   0.00000  -0.00057  -0.00057   2.10488
   A39        2.11400   0.00002   0.00000  -0.00010  -0.00010   2.11389
   A40        2.11833   0.00024   0.00000   0.00077   0.00077   2.11910
   A41        2.05085  -0.00026   0.00000  -0.00066  -0.00066   2.05019
   A42        1.92156   0.00042   0.00000   0.00222   0.00221   1.92378
   A43        1.93656   0.00111   0.00000   0.00697   0.00695   1.94352
   A44        1.91588   0.00079   0.00000   0.00501   0.00500   1.92088
   A45        1.89285  -0.00082   0.00000  -0.00534  -0.00534   1.88750
   A46        1.89785  -0.00065   0.00000  -0.00436  -0.00436   1.89349
   A47        1.89846  -0.00091   0.00000  -0.00493  -0.00496   1.89351
   A48        2.13069  -0.00635   0.00000  -0.02510  -0.02510   2.10559
   A49        1.98184   0.00663   0.00000   0.02619   0.02619   2.00803
   A50        2.17065  -0.00028   0.00000  -0.00110  -0.00110   2.16956
   A51        2.08138  -0.00008   0.00000  -0.00014  -0.00014   2.08124
   A52        2.10129   0.00042   0.00000   0.00240   0.00240   2.10369
   A53        2.10025  -0.00034   0.00000  -0.00221  -0.00222   2.09804
   A54        2.08220  -0.00008   0.00000  -0.00010  -0.00010   2.08210
   A55        2.10115   0.00047   0.00000   0.00272   0.00272   2.10387
   A56        2.09945  -0.00039   0.00000  -0.00258  -0.00258   2.09687
   A57        2.15430  -0.00009   0.00000  -0.00057  -0.00057   2.15373
   A58        2.03217  -0.00123   0.00000  -0.00757  -0.00757   2.02460
   A59        2.09670   0.00133   0.00000   0.00815   0.00815   2.10485
   A60        2.15364  -0.00015   0.00000  -0.00074  -0.00074   2.15290
   A61        2.03226  -0.00124   0.00000  -0.00769  -0.00769   2.02457
   A62        2.09726   0.00139   0.00000   0.00845   0.00845   2.10570
    D1        0.00100   0.00000   0.00000   0.00009   0.00008   0.00108
    D2       -3.14129  -0.00002   0.00000  -0.00098  -0.00098   3.14092
[...]
    30  H    0.000000   0.000000   0.000000  -0.003079   0.000000   0.001935
    31  H    0.000000   0.000000   0.000000   0.004549   0.000000   0.000497
    32  H    0.000000   0.000000   0.000000   0.000000   0.003694  -0.000024
    33  H    0.000000   0.000000   0.000000   0.000027   0.003764   0.000057
    34  H    0.000000   0.000000   0.000000   0.000000  -0.036383   0.000000
    35  H    0.000000   0.000000   0.000000   0.000000  -0.036308  -0.000001
    36  H    0.000305   0.249732   0.002995   0.000001   0.000000   0.000004
               7          8          9         10         11         12
     1  O   -0.112917   0.000005  -0.000319  -0.000009   0.001722   0.670056
     2  O   -0.000810   0.000001  -0.000002   0.000000  -0.005474   0.004213
     3  O   -0.000227   0.000218  -0.000009   0.000000   0.005292  -0.003518
     4  N   -0.035152   0.243460  -0.031171  -0.005852   0.397138  -0.005160
     5  N    0.000000   0.000000  -0.000261  -0.004029   0.000000   0.000000
     6  C    0.299577  -0.053836   0.381244  -0.059093  -0.129163  -0.054907
     7  C    5.560023   0.002204  -0.089158  -0.079619   0.014075   0.117788
     8  C    0.002204   5.270523   0.026036   0.002482  -0.056743   0.001188
     9  C   -0.089158   0.026036   5.695566   0.442558   0.010348  -0.004383
    10  C   -0.079619   0.002482   0.442558   4.870105   0.000063  -0.001277
    11  C    0.014075  -0.056743   0.010348   0.000063   5.520427  -0.077823
    12  C    0.117788   0.001188  -0.004383  -0.001277  -0.077823   5.235075
    13  C   -0.152482   0.004620  -0.006333  -0.000129   0.312601   0.035963
    14  C    0.429359  -0.000204  -0.065976  -0.067659   0.003882  -0.036408
    15  C   -0.063109   0.000297  -0.144819   0.419702   0.000693  -0.012317
    16  C   -0.003204  -0.000259  -0.049761   0.230175   0.000091  -0.000307
    17  C   -0.001528   0.274351   0.003467   0.000797  -0.004936   0.000008
    18  C   -0.023244   0.000349  -0.000435  -0.000024  -0.028437  -0.032836
    19  C    0.000100   0.000007  -0.025954  -0.063080  -0.000001   0.000001
    20  C    0.000143   0.000082   0.047485  -0.065737  -0.000002  -0.000015
    21  C   -0.000025  -0.000001   0.000080  -0.008952   0.000000   0.000000
    22  C   -0.000029  -0.000012  -0.004068  -0.008386   0.000000   0.000000
    23  H   -0.001690   0.368696   0.009385   0.002257   0.002758  -0.000037
    24  H    0.000193   0.363773  -0.000402  -0.000011   0.002401  -0.000050
    25  H   -0.005394   0.011609   0.303669  -0.015132   0.000932  -0.000078
    26  H   -0.000426  -0.000225  -0.000076  -0.000014   0.312190   0.003846
    27  H   -0.022948   0.000005   0.000559  -0.000289  -0.000135   0.004854
    28  H    0.000284  -0.000003   0.006256  -0.026171   0.000003   0.000329
    29  H   -0.000106  -0.035275  -0.000060   0.000012   0.003883   0.000013
    30  H    0.000022  -0.037910   0.005213   0.000516  -0.000096   0.000010
    31  H    0.000018  -0.027611  -0.000629  -0.000026  -0.000093   0.000000
    32  H   -0.000006   0.000000   0.000502  -0.010639   0.000000   0.000000
    33  H   -0.000018  -0.000167   0.001036  -0.011030   0.000003  -0.000001
    34  H    0.000000   0.000000  -0.000011  -0.000203   0.000000   0.000000
    35  H    0.000000   0.000000  -0.000053  -0.000201   0.000000   0.000000
    36  H    0.000049   0.000000   0.000000   0.000000  -0.000330   0.001464
              13         14         15         16         17         18
     1  O   -0.070892   0.008936   0.000869  -0.000002   0.000000  -0.007618
     2  O   -0.030197   0.000109   0.000000   0.000000   0.000000   0.257547
     3  O   -0.063742   0.000014   0.000000   0.000000   0.000003   0.588218
     4  N   -0.058546   0.009057   0.001969   0.000148  -0.066841   0.008775
     5  N    0.000000  -0.000003  -0.000012  -0.057062   0.000000   0.000000
     6  C    0.015546  -0.055906  -0.048549  -0.004684  -0.013748  -0.001721
     7  C   -0.152482   0.429359  -0.063109  -0.003204  -0.001528  -0.023244
     8  C    0.004620  -0.000204   0.000297  -0.000259   0.274351   0.000349
     9  C   -0.006333  -0.065976  -0.144819  -0.049761   0.003467  -0.000435
    10  C   -0.000129  -0.067659   0.419702   0.230175   0.000797  -0.000024
    11  C    0.312601   0.003882   0.000693   0.000091  -0.004936  -0.028437
    12  C    0.035963  -0.036408  -0.012317  -0.000307   0.000008  -0.032836
    13  C    5.866184  -0.019170  -0.000745  -0.000041  -0.000605   0.082310
    14  C   -0.019170   5.417767   0.465677   0.005915   0.000006   0.000724
    15  C   -0.000745   0.465677   5.513409  -0.017043  -0.000003   0.000019
    16  C   -0.000041   0.005915  -0.017043   4.792893   0.000202   0.000000
    17  C   -0.000605   0.000006  -0.000003   0.000202   5.408962   0.000008
    18  C    0.082310   0.000724   0.000019   0.000000   0.000008   4.986267
    19  C    0.000000   0.002712   0.049412   0.483002   0.000002   0.000000
    20  C    0.000000  -0.000283  -0.019056   0.481506  -0.000059   0.000000
    21  C    0.000000  -0.000228  -0.002083  -0.086112   0.000000   0.000000
    22  C    0.000000   0.000032   0.000837  -0.089860   0.000005   0.000000
    23  H    0.000057  -0.000075   0.000058   0.000004  -0.043103   0.000003
    24  H    0.000268   0.000014  -0.000001  -0.000001  -0.039819   0.000024
    25  H    0.000000   0.000390   0.007978  -0.006627  -0.006252   0.000000
    26  H   -0.011935   0.000037   0.000004   0.000000  -0.000538  -0.005401
    27  H    0.002580   0.320827  -0.035384   0.000067   0.000000  -0.000005
    28  H   -0.000004  -0.028462   0.321158  -0.006075   0.000000   0.000000
    29  H    0.000093  -0.000002   0.000000  -0.000001   0.376245   0.000012
    30  H   -0.000020   0.000010   0.000014   0.000094   0.371363   0.000000
    31  H   -0.000002   0.000000   0.000000  -0.000002   0.367636   0.000000
    32  H    0.000000  -0.000069   0.000881  -0.017665   0.000000   0.000000
    33  H    0.000000  -0.000040   0.000500  -0.017760   0.000188   0.000000
    34  H    0.000000  -0.000001  -0.000035  -0.002300   0.000000   0.000000
    35  H    0.000000   0.000000  -0.000004  -0.002303   0.000000   0.000000
    36  H    0.005093  -0.000003   0.000000   0.000000   0.000000  -0.028908
              19         20         21         22         23         24
     1  O    0.000000   0.000000   0.000000   0.000000   0.000000   0.000000
     2  O    0.000000   0.000000   0.000000   0.000000   0.000000   0.000000
     3  O    0.000000   0.000000   0.000000   0.000000   0.000000   0.000002
     4  N    0.000000  -0.000099   0.000000   0.000001  -0.040416  -0.039895
     5  N   -0.031275  -0.032220   0.508779   0.510471   0.000000   0.000000
     6  C   -0.000720   0.003021   0.000001  -0.000405  -0.013433   0.002449
     7  C    0.000100   0.000143  -0.000025  -0.000029  -0.001690   0.000193
     8  C    0.000007   0.000082  -0.000001  -0.000012   0.368696   0.363773
     9  C   -0.025954   0.047485   0.000080  -0.004068   0.009385  -0.000402
    10  C   -0.063080  -0.065737  -0.008952  -0.008386   0.002257  -0.000011
    11  C   -0.000001  -0.000002   0.000000   0.000000   0.002758   0.002401
    12  C    0.000001  -0.000015   0.000000   0.000000  -0.000037  -0.000050
    13  C    0.000000   0.000000   0.000000   0.000000   0.000057   0.000268
    14  C    0.002712  -0.000283  -0.000228   0.000032  -0.000075   0.000014
    15  C    0.049412  -0.019056  -0.002083   0.000837   0.000058  -0.000001
    16  C    0.483002   0.481506  -0.086112  -0.089860   0.000004  -0.000001
    17  C    0.000002  -0.000059   0.000000   0.000005  -0.043103  -0.039819
    18  C    0.000000   0.000000   0.000000   0.000000   0.000003   0.000024
    19  C    5.402401  -0.065401   0.353895  -0.035928   0.000000   0.000000
    20  C   -0.065401   5.402288  -0.036097   0.355296   0.000021   0.000000
    21  C    0.353895  -0.036097   5.469578  -0.208466   0.000000   0.000000
    22  C   -0.035928   0.355296  -0.208466   5.472148   0.000001   0.000000
    23  H    0.000000   0.000021   0.000000   0.000001   0.510789  -0.028384
    24  H    0.000000   0.000000   0.000000   0.000000  -0.028384   0.507435
    25  H    0.000698   0.000864  -0.000025  -0.000116   0.004864   0.000122
    26  H    0.000000   0.000000   0.000000   0.000000   0.000216   0.003055
    27  H   -0.000020  -0.000003   0.000001   0.000000   0.000000   0.000000
    28  H    0.000758   0.000586  -0.000080  -0.000021   0.000000   0.000000
    29  H    0.000000   0.000001   0.000000   0.000000   0.003140  -0.004150
    30  H    0.000002  -0.000015   0.000000  -0.000008  -0.003801   0.003135
    31  H    0.000000   0.000005   0.000000   0.000000  -0.001041  -0.000975
    32  H    0.309871   0.007101  -0.021125   0.001972   0.000000   0.000000
    33  H    0.007277   0.304783   0.001958  -0.020938   0.000012   0.000000
    34  H   -0.066007  -0.001456   0.343381   0.009848   0.000000   0.000000
    35  H   -0.001539  -0.066613   0.009993   0.342793   0.000000   0.000000
    36  H    0.000000   0.000000   0.000000   0.000000   0.000000   0.000000
              25         26         27         28         29         30
     1  O    0.000001  -0.000055   0.011129   0.000003   0.000000   0.000000
     2  O    0.000000   0.000331   0.000000   0.000000   0.000000   0.000000
     3  O    0.000000   0.012562   0.000000   0.000000   0.000001   0.000000
     4  N   -0.002124  -0.038558  -0.000067   0.000007  -0.003606  -0.003079
     5  N   -0.000009   0.000000   0.000000  -0.000009   0.000000   0.000000
     6  C   -0.040929  -0.003902   0.001899   0.000326  -0.000135   0.001935
     7  C   -0.005394  -0.000426  -0.022948   0.000284  -0.000106   0.000022
     8  C    0.011609  -0.000225   0.000005  -0.000003  -0.035275  -0.037910
     9  C    0.303669  -0.000076   0.000559   0.006256  -0.000060   0.005213
    10  C   -0.015132  -0.000014  -0.000289  -0.026171   0.000012   0.000516
    11  C    0.000932   0.312190  -0.000135   0.000003   0.003883  -0.000096
    12  C   -0.000078   0.003846   0.004854   0.000329   0.000013   0.000010
    13  C    0.000000  -0.011935   0.002580  -0.000004   0.000093  -0.000020
    14  C    0.000390   0.000037   0.320827  -0.028462  -0.000002   0.000010
    15  C    0.007978   0.000004  -0.035384   0.321158   0.000000   0.000014
    16  C   -0.006627   0.000000   0.000067  -0.006075  -0.000001   0.000094
    17  C   -0.006252  -0.000538   0.000000   0.000000   0.376245   0.371363
    18  C    0.000000  -0.005401  -0.000005   0.000000   0.000012   0.000000
    19  C    0.000698   0.000000  -0.000020   0.000758   0.000000   0.000002
    20  C    0.000864   0.000000  -0.000003   0.000586   0.000001  -0.000015
    21  C   -0.000025   0.000000   0.000001  -0.000080   0.000000   0.000000
    22  C   -0.000116   0.000000   0.000000  -0.000021   0.000000  -0.000008
    23  H    0.004864   0.000216   0.000000   0.000000   0.003140  -0.003801
    24  H    0.000122   0.003055   0.000000   0.000000  -0.004150   0.003135
    25  H    0.504625   0.000007   0.000007  -0.000086   0.000087  -0.000245
    26  H    0.000007   0.451116   0.000000   0.000000  -0.000089   0.000012
    27  H    0.000007   0.000000   0.442617  -0.000844   0.000000   0.000000
    28  H   -0.000086   0.000000  -0.000844   0.495927   0.000000   0.000000
    29  H    0.000087  -0.000089   0.000000   0.000000   0.470049  -0.021016
    30  H   -0.000245   0.000012   0.000000   0.000000  -0.021016   0.478283
    31  H    0.000136   0.000004   0.000000   0.000000  -0.018982  -0.019775
    32  H   -0.000008   0.000000   0.000013   0.000430   0.000000   0.000000
    33  H    0.001041   0.000000   0.000000  -0.000009   0.000001   0.000055
    34  H    0.000000   0.000000   0.000000   0.000012   0.000000   0.000000
    35  H    0.000015   0.000000   0.000000   0.000000   0.000000   0.000000
    36  H    0.000000   0.000001   0.000000   0.000000   0.000000   0.000000
              31         32         33         34         35         36
     1  O    0.000000   0.000000   0.000000   0.000000   0.000000   0.000305
     2  O    0.000000   0.000000   0.000000   0.000000   0.000000   0.249732
     3  O    0.000000   0.000000   0.000000   0.000000   0.000000   0.002995
     4  N    0.004549   0.000000   0.000027   0.000000   0.000000   0.000001
     5  N    0.000000   0.003694   0.003764  -0.036383  -0.036308   0.000000
     6  C    0.000497  -0.000024   0.000057   0.000000  -0.000001   0.000004
     7  C    0.000018  -0.000006  -0.000018   0.000000   0.000000   0.000049
     8  C   -0.027611   0.000000  -0.000167   0.000000   0.000000   0.000000
     9  C   -0.000629   0.000502   0.001036  -0.000011  -0.000053   0.000000
    10  C   -0.000026  -0.010639  -0.011030  -0.000203  -0.000201   0.000000
    11  C   -0.000093   0.000000   0.000003   0.000000   0.000000  -0.000330
    12  C    0.000000   0.000000  -0.000001   0.000000   0.000000   0.001464
    13  C   -0.000002   0.000000   0.000000   0.000000   0.000000   0.005093
    14  C    0.000000  -0.000069  -0.000040  -0.000001   0.000000  -0.000003
    15  C    0.000000   0.000881   0.000500  -0.000035  -0.000004   0.000000
    16  C   -0.000002  -0.017665  -0.017760  -0.002300  -0.002303   0.000000
    17  C    0.367636   0.000000   0.000188   0.000000   0.000000   0.000000
    18  C    0.000000   0.000000   0.000000   0.000000   0.000000  -0.028908
    19  C    0.000000   0.309871   0.007277  -0.066007  -0.001539   0.000000
    20  C    0.000005   0.007101   0.304783  -0.001456  -0.066613   0.000000
    21  C    0.000000  -0.021125   0.001958   0.343381   0.009993   0.000000
    22  C    0.000000   0.001972  -0.020938   0.009848   0.342793   0.000000
    23  H   -0.001041   0.000000   0.000012   0.000000   0.000000   0.000000
    24  H   -0.000975   0.000000   0.000000   0.000000   0.000000   0.000000
    25  H    0.000136  -0.000008   0.001041   0.000000   0.000015   0.000000
    26  H    0.000004   0.000000   0.000000   0.000000   0.000000   0.000001
    27  H    0.000000   0.000013   0.000000   0.000000   0.000000   0.000000
    28  H    0.000000   0.000430  -0.000009   0.000012   0.000000   0.000000
    29  H   -0.018982   0.000000   0.000001   0.000000   0.000000   0.000000
    30  H   -0.019775   0.000000   0.000055   0.000000   0.000000   0.000000
    31  H    0.469972   0.000000  -0.000002   0.000000   0.000000   0.000000
    32  H    0.000000   0.493972  -0.000070   0.003609   0.000011   0.000000
    33  H   -0.000002  -0.000070   0.509683   0.000011   0.003767   0.000000
    34  H    0.000000   0.003609   0.000011   0.518367   0.000071   0.000000
    35  H    0.000000   0.000011   0.003767   0.000071   0.521828   0.000000
    36  H    0.000000   0.000000   0.000000   0.000000   0.000000   0.361213
 Mulliken charges:
               1
     1  O   -0.282461
     2  O   -0.452101
     3  O   -0.354626
     4  N   -0.218010
     5  N   -0.055627
     6  C    0.333872
     7  C    0.168259
     8  C   -0.357658
     9  C   -0.509521
    10  C    0.458897
    11  C   -0.285269
    12  C    0.154312
    13  C    0.089529
    14  C   -0.390982
    15  C   -0.440315
    16  C    0.366973
    17  C   -0.625811
    18  C    0.204374
    19  C   -0.320212
    20  C   -0.316126
    21  C   -0.324469
    22  C   -0.325167
    23  H    0.229722
    24  H    0.230816
    25  H    0.239982
    26  H    0.277836
    27  H    0.275137
    28  H    0.235685
    29  H    0.229886
    30  H    0.225302
    31  H    0.226321
    32  H    0.227552
    33  H    0.215876
    34  H    0.231097
    35  H    0.228544
    36  H    0.408383
 Sum of Mulliken charges =   0.00000
 Mulliken charges with hydrogens summed into heavy atoms:
               1
     1  O   -0.282461
     2  O   -0.043718
     3  O   -0.354626
     4  N   -0.218010
     5  N   -0.055627
     6  C    0.333872
     7  C    0.168259
     8  C    0.102881
     9  C   -0.269539
    10  C    0.458897
    11  C   -0.007433
    12  C    0.154312
    13  C    0.089529
    14  C   -0.115845
    15  C   -0.204631
    16  C    0.366973
    17  C    0.055697
    18  C    0.204374
    19  C   -0.092660
    20  C   -0.100250
    21  C   -0.093372
    22  C   -0.096622
 Electronic spatial extent (au):  <R**2>=           8574.6445
 Charge=              0.0000 electrons
 Dipole moment (field-independent basis, Debye):
    X=              2.1341    Y=              4.5462    Z=             -0.5871  Tot=              5.0564
 Quadrupole moment (field-independent basis, Debye-Ang):
   XX=           -160.5159   YY=           -117.3438   ZZ=           -127.5497
   XY=             -8.9659   XZ=              0.0379   YZ=              3.0130
 Traceless Quadrupole moment (field-independent basis, Debye-Ang):
   XX=            -25.3794   YY=             17.7927   ZZ=              7.5868
   XY=             -8.9659   XZ=              0.0379   YZ=              3.0130
 Octapole moment (field-independent basis, Debye-Ang**2):
  XXX=           -225.8376  YYY=             53.4731  ZZZ=             -0.1385  XYY=             50.9130
  XXY=            -56.2322  XXZ=              5.6609  XZZ=            -19.2078  YZZ=              4.6513
  YYZ=             -6.4507  XYZ=              9.6794
 Hexadecapole moment (field-independent basis, Debye-Ang**3):
 XXXX=         -10403.4925 YYYY=          -1849.8433 ZZZZ=           -258.9756 XXXY=            270.3654
 XXXZ=           -108.4178 YYYX=           -123.5351 YYYZ=             -0.0991 ZZZX=             -3.5572
 ZZZY=             -2.8094 XXYY=          -1825.0642 XXZZ=          -1569.5915 YYZZ=           -362.3598
 XXYZ=            120.8632 YYXZ=             16.5815 ZZXY=              4.8547
 N-N= 1.651424793914D+03 E-N=-5.610513976244D+03  KE= 9.856631296257D+02
 1\1\GINC-NODE043\FOpt\RM06\LANL2DZ\C17H14N2O3\SUPERCOMPUTO1\21-Jul-202
 0\0\\#opt M06/lanl2dz integral=ultrafine geom=connectivity\\Title Card
  Required\\0,1\O,-2.7873602563,-2.484422575,0.3210427755\O,-5.29896825
 1,-1.3291252856,0.1419898567\O,-5.3956350718,0.9047604774,-0.266713000
 3\N,-1.3256892138,1.3397888746,-0.3630989373\N,6.1264763773,0.10723506
 71,-0.0716493029\C,-0.4162142365,0.2827514081,-0.1551678761\C,-0.92784
 33931,-1.0156916629,0.070548947\C,-0.8609926389,2.7300918546,-0.554491
 1585\C,0.9755019467,0.4943283325,-0.1812506554\C,1.8633317765,-0.57002
 12355,0.0102019793\C,-2.6610996222,1.0965647695,-0.3095024736\C,-2.389
 31646,-1.3142418195,0.1198442441\C,-3.2371294935,-0.1366961735,-0.0848
 06345\C,-0.0243996123,-2.0761580252,0.2588244024\C,1.3483138797,-1.867
 5603093,0.2296712175\C,3.324811498,-0.335568157,-0.0157120424\C,-0.521
 5030276,3.4061627412,0.7749516755\C,-4.710086487,-0.1211052624,-0.0825
 072542\C,4.2084663842,-1.2978520548,-0.5390595968\C,3.8896200045,0.853
 8545975,0.4823509226\C,5.583875562,-1.0362621691,-0.5466649385\C,5.277
 5780382,1.0298529819,0.433678658\H,-0.0053206571,2.7280751772,-1.23739
 30455\H,-1.6639563148,3.2743382582,-1.0614190828\H,1.3813368651,1.4818
 718647,-0.3804201563\H,-3.3215011984,1.9486786341,-0.4595445919\H,-0.4
 525040793,-3.0588661906,0.4356380871\H,2.0306680139,-2.6938499975,0.40
 76847455\H,-1.4049254898,3.4387724255,1.4216548431\H,0.2678002995,2.86
 74273544,1.3106408971\H,-0.1825434512,4.4328096635,0.6048825683\H,3.83
 23390612,-2.2259768816,-0.9591080591\H,3.2643235515,1.6206313648,0.932
 0116357\H,6.2826615472,-1.7629107926,-0.9509103796\H,5.7345357453,1.93
 74075496,0.8178803348\H,-6.2764225965,-1.2285788042,0.1274791059\\Vers
 ion=ES64L-G09RevD.01\State=1-A\HF=-990.6260934\RMSD=5.906e-09\RMSF=3.0
 68e-06\Dipole=0.8416573,1.7898198,-0.2137142\Quadrupole=-18.8851896,13
 .1992335,5.6859561,-6.6254297,-0.0197237,2.3194221\PG=C01 [X(C17H14N2O
 3)]\\@


 WHEN HAVING A MEETING OF THE MINDS,
 MAKE SURE YOU HAVE THE EQUIPMENT FOR IT.
 Job cpu time:       0 days  2 hours 45 minutes 10.4 seconds.
 File lengths (MBytes):  RWF=     35 Int=      0 D2E=      0 Chk=      5 Scr=      1
 Normal termination of Gaussian 09 at Tue Jul 21 14:19:06 2020.
